1.297663599999999917e+01 0.000000000000000000e+00 0.000000000000000000e+00 0.000000000000000000e+00 1.511887399999999992e+01 0.000000000000000000e+00 0.000000000000000000e+00 0.000000000000000000e+00 1.410805799999999977e+01
1.330487800000000043e+01 0.000000000000000000e+00 0.000000000000000000e+00 0.000000000000000000e+00 1.506837600000000066e+01 0.000000000000000000e+00 0.000000000000000000e+00 0.000000000000000000e+00 1.413249899999999926e+01
1.291637799999999991e+01 0.000000000000000000e+00 0.000000000000000000e+00 0.000000000000000000e+00 1.502307599999999965e+01 0.000000000000000000e+00 0.000000000000000000e+00 0.000000000000000000e+00 1.410795500000000047e+01
1.341412200000000077e+01 0.000000000000000000e+00 0.000000000000000000e+00 0.000000000000000000e+00 1.493807600000000058e+01 0.000000000000000000e+00 0.000000000000000000e+00 0.000000000000000000e+00 1.430214600000000047e+01
1.300932599999999972e+01 0.000000000000000000e+00 0.000000000000000000e+00 0.000000000000000000e+00 1.495242600000000088e+01 0.000000000000000000e+00 0.000000000000000000e+00 0.000000000000000000e+00 1.421780200000000072e+01
1.323595700000000086e+01 0.000000000000000000e+00 0.000000000000000000e+00 0.000000000000000000e+00 1.492472500000000046e+01 0.000000000000000000e+00 0.000000000000000000e+00 0.000000000000000000e+00 1.417070599999999914e+01
1.306591500000000039e+01 0.000000000000000000e+00 0.000000000000000000e+00 0.000000000000000000e+00 1.512135600000000046e+01 0.000000000000000000e+00 0.000000000000000000e+00 0.000000000000000000e+00 1.457004300000000008e+01
1.315368899999999996e+01 0.000000000000000000e+00 0.000000000000000000e+00 0.000000000000000000e+00 1.493852599999999953e+01 0.000000000000000000e+00 0.000000000000000000e+00 0.000000000000000000e+00 1.450854700000000008e+01
1.314744899999999994e+01 0.000000000000000000e+00 0.000000000000000000e+00 0.000000000000000000e+00 1.502775899999999965e+01 0.000000000000000000e+00 0.000000000000000000e+00 0.000000000000000000e+00 1.396693899999999999e+01
1.306860099999999925e+01 0.000000000000000000e+00 0.000000000000000000e+00 0.000000000000000000e+00 1.489124100000000084e+01 0.000000000000000000e+00 0.000000000000000000e+00 0.000000000000000000e+00 1.433326199999999950e+01
1.340952799999999989e+01 0.000000000000000000e+00 0.000000000000000000e+00 0.000000000000000000e+00 1.542207800000000084e+01 0.000000000000000000e+00 0.000000000000000000e+00 0.000000000000000000e+00 1.425005299999999941e+01
1.294440999999999953e+01 0.000000000000000000e+00 0.000000000000000000e+00 0.000000000000000000e+00 1.502737800000000057e+01 0.000000000000000000e+00 0.000000000000000000e+00 0.000000000000000000e+00 1.441410300000000078e+01
1.339738999999999969e+01 0.000000000000000000e+00 0.000000000000000000e+00 0.000000000000000000e+00 1.469275000000000020e+01 0.000000000000000000e+00 0.000000000000000000e+00 0.000000000000000000e+00 1.461518500000000031e+01
1.298214499999999916e+01 0.000000000000000000e+00 0.000000000000000000e+00 0.000000000000000000e+00 1.471233900000000006e+01 0.000000000000000000e+00 0.000000000000000000e+00 0.000000000000000000e+00 1.439365899999999954e+01
1.317296499999999959e+01 0.000000000000000000e+00 0.000000000000000000e+00 0.000000000000000000e+00 1.518981999999999921e+01 0.000000000000000000e+00 0.000000000000000000e+00 0.000000000000000000e+00 1.392173000000000016e+01
1.313382599999999911e+01 0.000000000000000000e+00 0.000000000000000000e+00 0.000000000000000000e+00 1.491206200000000059e+01 0.000000000000000000e+00 0.000000000000000000e+00 0.000000000000000000e+00 1.420932900000000032e+01
1.338198599999999949e+01 0.000000000000000000e+00 0.000000000000000000e+00 0.000000000000000000e+00 1.513777900000000010e+01 0.000000000000000000e+00 0.000000000000000000e+00 0.000000000000000000e+00 1.434517600000000037e+01
1.333026899999999948e+01 0.000000000000000000e+00 0.000000000000000000e+00 0.000000000000000000e+00 1.470580999999999960e+01 0.000000000000000000e+00 0.000000000000000000e+00 0.000000000000000000e+00 1.411195200000000050e+01
1.350247199999999914e+01 0.000000000000000000e+00 0.000000000000000000e+00 0.000000000000000000e+00 1.483975399999999922e+01 0.000000000000000000e+00 0.000000000000000000e+00 0.000000000000000000e+00 1.459657100000000085e+01
1.312318600000000046e+01 0.000000000000000000e+00 0.000000000000000000e+00 0.000000000000000000e+00 1.516906700000000008e+01 0.000000000000000000e+00 0.000000000000000000e+00 0.000000000000000000e+00 1.435695300000000074e+01
1.322657099999999986e+01 0.000000000000000000e+00 0.000000000000000000e+00 0.000000000000000000e+00 1.522313899999999975e+01 0.000000000000000000e+00 0.000000000000000000e+00 0.000000000000000000e+00 1.421374800000000072e+01
1.302999999999999936e+01 0.000000000000000000e+00 0.000000000000000000e+00 0.000000000000000000e+00 1.528890700000000002e+01 0.000000000000000000e+00 0.000000000000000000e+00 0.000000000000000000e+00 1.411446199999999962e+01
1.328878800000000027e+01 0.000000000000000000e+00 0.000000000000000000e+00 0.000000000000000000e+00 1.466994099999999968e+01 0.000000000000000000e+00 0.000000000000000000e+00 0.000000000000000000e+00 1.394918700000000022e+01
1.319210799999999928e+01 0.000000000000000000e+00 0.000000000000000000e+00 0.000000000000000000e+00 1.579484399999999944e+01 0.000000000000000000e+00 0.000000000000000000e+00 0.000000000000000000e+00 1.400610600000000083e+01
1.301648299999999914e+01 0.000000000000000000e+00 0.000000000000000000e+00 0.000000000000000000e+00 1.506189299999999953e+01 0.000000000000000000e+00 0.000000000000000000e+00 0.000000000000000000e+00 1.433469499999999996e+01
1.292813100000000048e+01 0.000000000000000000e+00 0.000000000000000000e+00 0.000000000000000000e+00 1.478460699999999939e+01 0.000000000000000000e+00 0.000000000000000000e+00 0.000000000000000000e+00 1.431024299999999982e+01
1.297423799999999972e+01 0.000000000000000000e+00 0.000000000000000000e+00 0.000000000000000000e+00 1.507123400000000046e+01 0.000000000000000000e+00 0.000000000000000000e+00 0.000000000000000000e+00 1.421323699999999945e+01
1.308339199999999991e+01 0.000000000000000000e+00 0.000000000000000000e+00 0.000000000000000000e+00 1.521805299999999939e+01 0.000000000000000000e+00 0.000000000000000000e+00 0.000000000000000000e+00 1.414875499999999953e+01
1.331747799999999948e+01 0.000000000000000000e+00 0.000000000000000000e+00 0.000000000000000000e+00 1.458489499999999950e+01 0.000000000000000000e+00 0.000000000000000000e+00 0.000000000000000000e+00 1.400540499999999966e+01
1.304564200000000085e+01 0.000000000000000000e+00 0.000000000000000000e+00 0.000000000000000000e+00 1.459907300000000063e+01 0.000000000000000000e+00 0.000000000000000000e+00 0.000000000000000000e+00 1.425543700000000058e+01
1.324862500000000054e+01 0.000000000000000000e+00 0.000000000000000000e+00 0.000000000000000000e+00 1.438823000000000008e+01 0.000000000000000000e+00 0.000000000000000000e+00 0.000000000000000000e+00 1.431819100000000056e+01
1.297634000000000043e+01 0.000000000000000000e+00 0.000000000000000000e+00 0.000000000000000000e+00 1.535043600000000019e+01 0.000000000000000000e+00 0.000000000000000000e+00 0.000000000000000000e+00 1.443082300000000018e+01
1.355333199999999927e+01 0.000000000000000000e+00 0.000000000000000000e+00 0.000000000000000000e+00 1.496640499999999996e+01 0.000000000000000000e+00 0.000000000000000000e+00 0.000000000000000000e+00 1.430280199999999979e+01
1.293200399999999917e+01 0.000000000000000000e+00 0.000000000000000000e+00 0.000000000000000000e+00 1.500282299999999935e+01 0.000000000000000000e+00 0.000000000000000000e+00 0.000000000000000000e+00 1.448499999999999943e+01
1.298476199999999992e+01 0.000000000000000000e+00 0.000000000000000000e+00 0.000000000000000000e+00 1.499072400000000016e+01 0.000000000000000000e+00 0.000000000000000000e+00 0.000000000000000000e+00 1.459158900000000081e+01
1.353669299999999964e+01 0.000000000000000000e+00 0.000000000000000000e+00 0.000000000000000000e+00 1.457991799999999927e+01 0.000000000000000000e+00 0.000000000000000000e+00 0.000000000000000000e+00 1.421432399999999951e+01
1.327978700000000067e+01 0.000000000000000000e+00 0.000000000000000000e+00 0.000000000000000000e+00 1.527887899999999988e+01 0.000000000000000000e+00 0.000000000000000000e+00 0.000000000000000000e+00 1.419147099999999995e+01
1.304808399999999935e+01 0.000000000000000000e+00 0.000000000000000000e+00 0.000000000000000000e+00 1.489330299999999951e+01 0.000000000000000000e+00 0.000000000000000000e+00 0.000000000000000000e+00 1.409057100000000062e+01
1.357239500000000021e+01 0.000000000000000000e+00 0.000000000000000000e+00 0.000000000000000000e+00 1.485775800000000046e+01 0.000000000000000000e+00 0.000000000000000000e+00 0.000000000000000000e+00 1.445761099999999999e+01
1.283923099999999984e+01 0.000000000000000000e+00 0.000000000000000000e+00 0.000000000000000000e+00 1.495140699999999967e+01 0.000000000000000000e+00 0.000000000000000000e+00 0.000000000000000000e+00 1.428647800000000068e+01
1.330981000000000058e+01 0.000000000000000000e+00 0.000000000000000000e+00 0.000000000000000000e+00 1.502231300000000047e+01 0.000000000000000000e+00 0.000000000000000000e+00 0.000000000000000000e+00 1.421827200000000069e+01
1.349488099999999946e+01 0.000000000000000000e+00 0.000000000000000000e+00 0.000000000000000000e+00 1.483976799999999940e+01 0.000000000000000000e+00 0.000000000000000000e+00 0.000000000000000000e+00 1.378771399999999936e+01
1.303790300000000002e+01 0.000000000000000000e+00 0.000000000000000000e+00 0.000000000000000000e+00 1.529643000000000086e+01 0.000000000000000000e+00 0.000000000000000000e+00 0.000000000000000000e+00 1.411787700000000001e+01
1.320622700000000016e+01 0.000000000000000000e+00 0.000000000000000000e+00 0.000000000000000000e+00 1.511308499999999988e+01 0.000000000000000000e+00 0.000000000000000000e+00 0.000000000000000000e+00 1.386538200000000032e+01
1.359662999999999933e+01 0.000000000000000000e+00 0.000000000000000000e+00 0.000000000000000000e+00 1.518738600000000005e+01 0.000000000000000000e+00 0.000000000000000000e+00 0.000000000000000000e+00 1.424974899999999955e+01
1.280674300000000088e+01 0.000000000000000000e+00 0.000000000000000000e+00 0.000000000000000000e+00 1.513430600000000048e+01 0.000000000000000000e+00 0.000000000000000000e+00 0.000000000000000000e+00 1.420750999999999920e+01
1.293521199999999993e+01 0.000000000000000000e+00 0.000000000000000000e+00 0.000000000000000000e+00 1.510924600000000062e+01 0.000000000000000000e+00 0.000000000000000000e+00 0.000000000000000000e+00 1.407850099999999927e+01
1.306512500000000010e+01 0.000000000000000000e+00 0.000000000000000000e+00 0.000000000000000000e+00 1.459533399999999936e+01 0.000000000000000000e+00 0.000000000000000000e+00 0.000000000000000000e+00 1.432244900000000065e+01
1.321423300000000012e+01 0.000000000000000000e+00 0.000000000000000000e+00 0.000000000000000000e+00 1.469149700000000003e+01 0.000000000000000000e+00 0.000000000000000000e+00 0.000000000000000000e+00 1.406876399999999983e+01
1.308652599999999921e+01 0.000000000000000000e+00 0.000000000000000000e+00 0.000000000000000000e+00 1.560806799999999939e+01 0.000000000000000000e+00 0.000000000000000000e+00 0.000000000000000000e+00 1.415452299999999930e+01
1.320916099999999993e+01 0.000000000000000000e+00 0.000000000000000000e+00 0.000000000000000000e+00 1.507735199999999942e+01 0.000000000000000000e+00 0.000000000000000000e+00 0.000000000000000000e+00 1.412366399999999977e+01
1.293993200000000066e+01 0.000000000000000000e+00 0.000000000000000000e+00 0.000000000000000000e+00 1.520642199999999988e+01 0.000000000000000000e+00 0.000000000000000000e+00 0.000000000000000000e+00 1.414382799999999918e+01
1.313844300000000054e+01 0.000000000000000000e+00 0.000000000000000000e+00 0.000000000000000000e+00 1.515569900000000025e+01 0.000000000000000000e+00 0.000000000000000000e+00 0.000000000000000000e+00 1.448760200000000076e+01
1.297139699999999962e+01 0.000000000000000000e+00 0.000000000000000000e+00 0.000000000000000000e+00 1.538299600000000034e+01 0.000000000000000000e+00 0.000000000000000000e+00 0.000000000000000000e+00 1.406394399999999933e+01
1.313299300000000081e+01 0.000000000000000000e+00 0.000000000000000000e+00 0.000000000000000000e+00 1.492535999999999952e+01 0.000000000000000000e+00 0.000000000000000000e+00 0.000000000000000000e+00 1.398566600000000015e+01
1.283308300000000024e+01 0.000000000000000000e+00 0.000000000000000000e+00 0.000000000000000000e+00 1.527770499999999920e+01 0.000000000000000000e+00 0.000000000000000000e+00 0.000000000000000000e+00 1.433113900000000029e+01
1.301816900000000032e+01 0.000000000000000000e+00 0.000000000000000000e+00 0.000000000000000000e+00 1.497361500000000056e+01 0.000000000000000000e+00 0.000000000000000000e+00 0.000000000000000000e+00 1.461858900000000006e+01
1.300725500000000068e+01 0.000000000000000000e+00 0.000000000000000000e+00 0.000000000000000000e+00 1.541560499999999934e+01 0.000000000000000000e+00 0.000000000000000000e+00 0.000000000000000000e+00 1.425841400000000014e+01
1.279314199999999957e+01 0.000000000000000000e+00 0.000000000000000000e+00 0.000000000000000000e+00 1.531679399999999980e+01 0.000000000000000000e+00 0.000000000000000000e+00 0.000000000000000000e+00 1.423740399999999973e+01
1.308626899999999971e+01 0.000000000000000000e+00 0.000000000000000000e+00 0.000000000000000000e+00 1.466734800000000050e+01 0.000000000000000000e+00 0.000000000000000000e+00 0.000000000000000000e+00 1.429553899999999977e+01
1.322986799999999974e+01 0.000000000000000000e+00 0.000000000000000000e+00 0.000000000000000000e+00 1.492057600000000050e+01 0.000000000000000000e+00 0.000000000000000000e+00 0.000000000000000000e+00 1.473259299999999961e+01
1.344000699999999959e+01 0.000000000000000000e+00 0.000000000000000000e+00 0.000000000000000000e+00 1.477551599999999965e+01 0.000000000000000000e+00 0.000000000000000000e+00 0.000000000000000000e+00 1.406084800000000001e+01
1.336417600000000050e+01 0.000000000000000000e+00 0.000000000000000000e+00 0.000000000000000000e+00 1.483737499999999976e+01 0.000000000000000000e+00 0.000000000000000000e+00 0.000000000000000000e+00 1.400857000000000063e+01
1.336697999999999986e+01 0.000000000000000000e+00 0.000000000000000000e+00 0.000000000000000000e+00 1.483412399999999920e+01 0.000000000000000000e+00 0.000000000000000000e+00 0.000000000000000000e+00 1.412075399999999981e+01
1.332235700000000023e+01 0.000000000000000000e+00 0.000000000000000000e+00 0.000000000000000000e+00 1.509990200000000016e+01 0.000000000000000000e+00 0.000000000000000000e+00 0.000000000000000000e+00 1.399257000000000062e+01
1.309934499999999957e+01 0.000000000000000000e+00 0.000000000000000000e+00 0.000000000000000000e+00 1.498062299999999958e+01 0.000000000000000000e+00 0.000000000000000000e+00 0.000000000000000000e+00 1.436217300000000030e+01
1.345205299999999937e+01 0.000000000000000000e+00 0.000000000000000000e+00 0.000000000000000000e+00 1.513384399999999985e+01 0.000000000000000000e+00 0.000000000000000000e+00 0.000000000000000000e+00 1.441057499999999969e+01
1.325649800000000056e+01 0.000000000000000000e+00 0.000000000000000000e+00 0.000000000000000000e+00 1.492011399999999988e+01 0.000000000000000000e+00 0.000000000000000000e+00 0.000000000000000000e+00 1.435641000000000034e+01
1.295973599999999948e+01 0.000000000000000000e+00 0.000000000000000000e+00 0.000000000000000000e+00 1.515000799999999970e+01 0.000000000000000000e+00 0.000000000000000000e+00 0.000000000000000000e+00 1.410502699999999976e+01
1.322412899999999958e+01 0.000000000000000000e+00 0.000000000000000000e+00 0.000000000000000000e+00 1.490516099999999966e+01 0.000000000000000000e+00 0.000000000000000000e+00 0.000000000000000000e+00 1.431628899999999938e+01
1.324883099999999914e+01 0.000000000000000000e+00 0.000000000000000000e+00 0.000000000000000000e+00 1.479979499999999959e+01 0.000000000000000000e+00 0.000000000000000000e+00 0.000000000000000000e+00 1.416762699999999953e+01
1.331511399999999945e+01 0.000000000000000000e+00 0.000000000000000000e+00 0.000000000000000000e+00 1.488523999999999958e+01 0.000000000000000000e+00 0.000000000000000000e+00 0.000000000000000000e+00 1.415666900000000084e+01
1.354843499999999956e+01 0.000000000000000000e+00 0.000000000000000000e+00 0.000000000000000000e+00 1.552568400000000004e+01 0.000000000000000000e+00 0.000000000000000000e+00 0.000000000000000000e+00 1.411709899999999962e+01
1.316830999999999996e+01 0.000000000000000000e+00 0.000000000000000000e+00 0.000000000000000000e+00 1.518261700000000047e+01 0.000000000000000000e+00 0.000000000000000000e+00 0.000000000000000000e+00 1.424109499999999962e+01
1.335061499999999945e+01 0.000000000000000000e+00 0.000000000000000000e+00 0.000000000000000000e+00 1.546340799999999938e+01 0.000000000000000000e+00 0.000000000000000000e+00 0.000000000000000000e+00 1.415640800000000077e+01
1.334367699999999957e+01 0.000000000000000000e+00 0.000000000000000000e+00 0.000000000000000000e+00 1.548958099999999938e+01 0.000000000000000000e+00 0.000000000000000000e+00 0.000000000000000000e+00 1.431227299999999936e+01
1.352275799999999961e+01 0.000000000000000000e+00 0.000000000000000000e+00 0.000000000000000000e+00 1.491105899999999984e+01 0.000000000000000000e+00 0.000000000000000000e+00 0.000000000000000000e+00 1.464622999999999919e+01
1.307701400000000014e+01 0.000000000000000000e+00 0.000000000000000000e+00 0.000000000000000000e+00 1.520344700000000060e+01 0.000000000000000000e+00 0.000000000000000000e+00 0.000000000000000000e+00 1.408841400000000021e+01
1.326272699999999993e+01 0.000000000000000000e+00 0.000000000000000000e+00 0.000000000000000000e+00 1.513392699999999991e+01 0.000000000000000000e+00 0.000000000000000000e+00 0.000000000000000000e+00 1.420316099999999970e+01
1.306526299999999985e+01 0.000000000000000000e+00 0.000000000000000000e+00 0.000000000000000000e+00 1.503775599999999990e+01 0.000000000000000000e+00 0.000000000000000000e+00 0.000000000000000000e+00 1.441679399999999944e+01
1.294822600000000001e+01 0.000000000000000000e+00 0.000000000000000000e+00 0.000000000000000000e+00 1.481726699999999930e+01 0.000000000000000000e+00 0.000000000000000000e+00 0.000000000000000000e+00 1.437598500000000001e+01
1.310180599999999984e+01 0.000000000000000000e+00 0.000000000000000000e+00 0.000000000000000000e+00 1.513931900000000041e+01 0.000000000000000000e+00 0.000000000000000000e+00 0.000000000000000000e+00 1.402318600000000082e+01
1.304346199999999989e+01 0.000000000000000000e+00 0.000000000000000000e+00 0.000000000000000000e+00 1.498671900000000079e+01 0.000000000000000000e+00 0.000000000000000000e+00 0.000000000000000000e+00 1.431342199999999920e+01
1.315762800000000077e+01 0.000000000000000000e+00 0.000000000000000000e+00 0.000000000000000000e+00 1.498646699999999932e+01 0.000000000000000000e+00 0.000000000000000000e+00 0.000000000000000000e+00 1.410600900000000024e+01
1.318402299999999983e+01 0.000000000000000000e+00 0.000000000000000000e+00 0.000000000000000000e+00 1.519260899999999914e+01 0.000000000000000000e+00 0.000000000000000000e+00 0.000000000000000000e+00 1.420453700000000019e+01
1.296785200000000060e+01 0.000000000000000000e+00 0.000000000000000000e+00 0.000000000000000000e+00 1.548243899999999940e+01 0.000000000000000000e+00 0.000000000000000000e+00 0.000000000000000000e+00 1.424410400000000010e+01
1.285600999999999949e+01 0.000000000000000000e+00 0.000000000000000000e+00 0.000000000000000000e+00 1.503654599999999952e+01 0.000000000000000000e+00 0.000000000000000000e+00 0.000000000000000000e+00 1.457680099999999968e+01
1.302966100000000083e+01 0.000000000000000000e+00 0.000000000000000000e+00 0.000000000000000000e+00 1.514465099999999964e+01 0.000000000000000000e+00 0.000000000000000000e+00 0.000000000000000000e+00 1.410763500000000015e+01
1.318140999999999963e+01 0.000000000000000000e+00 0.000000000000000000e+00 0.000000000000000000e+00 1.522161999999999971e+01 0.000000000000000000e+00 0.000000000000000000e+00 0.000000000000000000e+00 1.409136099999999914e+01
1.308372300000000088e+01 0.000000000000000000e+00 0.000000000000000000e+00 0.000000000000000000e+00 1.462831199999999932e+01 0.000000000000000000e+00 0.000000000000000000e+00 0.000000000000000000e+00 1.419627700000000026e+01
1.313328899999999955e+01 0.000000000000000000e+00 0.000000000000000000e+00 0.000000000000000000e+00 1.493282199999999982e+01 0.000000000000000000e+00 0.000000000000000000e+00 0.000000000000000000e+00 1.391863599999999934e+01
1.311181700000000028e+01 0.000000000000000000e+00 0.000000000000000000e+00 0.000000000000000000e+00 1.513377400000000073e+01 0.000000000000000000e+00 0.000000000000000000e+00 0.000000000000000000e+00 1.441233100000000000e+01
1.310297699999999921e+01 0.000000000000000000e+00 0.000000000000000000e+00 0.000000000000000000e+00 1.482376299999999958e+01 0.000000000000000000e+00 0.000000000000000000e+00 0.000000000000000000e+00 1.449795800000000057e+01
1.306997699999999973e+01 0.000000000000000000e+00 0.000000000000000000e+00 0.000000000000000000e+00 1.484508399999999995e+01 0.000000000000000000e+00 0.000000000000000000e+00 0.000000000000000000e+00 1.427878899999999973e+01
1.331255499999999969e+01 0.000000000000000000e+00 0.000000000000000000e+00 0.000000000000000000e+00 1.485497100000000081e+01 0.000000000000000000e+00 0.000000000000000000e+00 0.000000000000000000e+00 1.456900599999999990e+01
1.337887300000000046e+01 0.000000000000000000e+00 0.000000000000000000e+00 0.000000000000000000e+00 1.492886999999999986e+01 0.000000000000000000e+00 0.000000000000000000e+00 0.000000000000000000e+00 1.407267900000000083e+01
1.319256200000000057e+01 0.000000000000000000e+00 0.000000000000000000e+00 0.000000000000000000e+00 1.523313300000000048e+01 0.000000000000000000e+00 0.000000000000000000e+00 0.000000000000000000e+00 1.398418700000000037e+01
1.328788100000000050e+01 0.000000000000000000e+00 0.000000000000000000e+00 0.000000000000000000e+00 1.448792300000000033e+01 0.000000000000000000e+00 0.000000000000000000e+00 0.000000000000000000e+00 1.457373199999999969e+01
1.312319699999999933e+01 0.000000000000000000e+00 0.000000000000000000e+00 0.000000000000000000e+00 1.516331300000000049e+01 0.000000000000000000e+00 0.000000000000000000e+00 0.000000000000000000e+00 1.410726299999999966e+01
1.311682099999999984e+01 0.000000000000000000e+00 0.000000000000000000e+00 0.000000000000000000e+00 1.527980200000000011e+01 0.000000000000000000e+00 0.000000000000000000e+00 0.000000000000000000e+00 1.459078700000000062e+01
1.325084400000000073e+01 0.000000000000000000e+00 0.000000000000000000e+00 0.000000000000000000e+00 1.521892199999999917e+01 0.000000000000000000e+00 0.000000000000000000e+00 0.000000000000000000e+00 1.425505800000000001e+01
1.314755599999999980e+01 0.000000000000000000e+00 0.000000000000000000e+00 0.000000000000000000e+00 1.522941699999999976e+01 0.000000000000000000e+00 0.000000000000000000e+00 0.000000000000000000e+00 1.430869900000000072e+01
1.327306899999999956e+01 0.000000000000000000e+00 0.000000000000000000e+00 0.000000000000000000e+00 1.499781800000000054e+01 0.000000000000000000e+00 0.000000000000000000e+00 0.000000000000000000e+00 1.401780899999999974e+01
1.300757499999999922e+01 0.000000000000000000e+00 0.000000000000000000e+00 0.000000000000000000e+00 1.522301299999999991e+01 0.000000000000000000e+00 0.000000000000000000e+00 0.000000000000000000e+00 1.437339799999999990e+01
1.297423700000000046e+01 0.000000000000000000e+00 0.000000000000000000e+00 0.000000000000000000e+00 1.523478300000000019e+01 0.000000000000000000e+00 0.000000000000000000e+00 0.000000000000000000e+00 1.439878200000000064e+01
1.348703099999999999e+01 0.000000000000000000e+00 0.000000000000000000e+00 0.000000000000000000e+00 1.504434200000000033e+01 0.000000000000000000e+00 0.000000000000000000e+00 0.000000000000000000e+00 1.433716199999999930e+01
1.337987200000000065e+01 0.000000000000000000e+00 0.000000000000000000e+00 0.000000000000000000e+00 1.491635699999999964e+01 0.000000000000000000e+00 0.000000000000000000e+00 0.000000000000000000e+00 1.429146399999999950e+01
1.303355799999999931e+01 0.000000000000000000e+00 0.000000000000000000e+00 0.000000000000000000e+00 1.502936300000000003e+01 0.000000000000000000e+00 0.000000000000000000e+00 0.000000000000000000e+00 1.406013399999999969e+01
1.291615600000000086e+01 0.000000000000000000e+00 0.000000000000000000e+00 0.000000000000000000e+00 1.481555099999999925e+01 0.000000000000000000e+00 0.000000000000000000e+00 0.000000000000000000e+00 1.445536099999999990e+01
1.307838500000000082e+01 0.000000000000000000e+00 0.000000000000000000e+00 0.000000000000000000e+00 1.508024299999999940e+01 0.000000000000000000e+00 0.000000000000000000e+00 0.000000000000000000e+00 1.418429399999999951e+01
1.327858299999999936e+01 0.000000000000000000e+00 0.000000000000000000e+00 0.000000000000000000e+00 1.457581200000000088e+01 0.000000000000000000e+00 0.000000000000000000e+00 0.000000000000000000e+00 1.422392199999999995e+01
1.342550100000000057e+01 0.000000000000000000e+00 0.000000000000000000e+00 0.000000000000000000e+00 1.487259599999999971e+01 0.000000000000000000e+00 0.000000000000000000e+00 0.000000000000000000e+00 1.421977000000000046e+01
1.293619699999999995e+01 0.000000000000000000e+00 0.000000000000000000e+00 0.000000000000000000e+00 1.504466900000000074e+01 0.000000000000000000e+00 0.000000000000000000e+00 0.000000000000000000e+00 1.423480099999999915e+01
1.365805800000000048e+01 0.000000000000000000e+00 0.000000000000000000e+00 0.000000000000000000e+00 1.503239300000000078e+01 0.000000000000000000e+00 0.000000000000000000e+00 0.000000000000000000e+00 1.386308400000000063e+01
1.329616900000000079e+01 0.000000000000000000e+00 0.000000000000000000e+00 0.000000000000000000e+00 1.517463500000000032e+01 0.000000000000000000e+00 0.000000000000000000e+00 0.000000000000000000e+00 1.410266000000000020e+01
1.332862399999999958e+01 0.000000000000000000e+00 0.000000000000000000e+00 0.000000000000000000e+00 1.496651699999999963e+01 0.000000000000000000e+00 0.000000000000000000e+00 0.000000000000000000e+00 1.414738599999999913e+01
1.321666300000000049e+01 0.000000000000000000e+00 0.000000000000000000e+00 0.000000000000000000e+00 1.471170000000000044e+01 0.000000000000000000e+00 0.000000000000000000e+00 0.000000000000000000e+00 1.435052199999999978e+01
1.305472499999999947e+01 0.000000000000000000e+00 0.000000000000000000e+00 0.000000000000000000e+00 1.522634900000000080e+01 0.000000000000000000e+00 0.000000000000000000e+00 0.000000000000000000e+00 1.442297300000000071e+01
1.310764099999999921e+01 0.000000000000000000e+00 0.000000000000000000e+00 0.000000000000000000e+00 1.510973100000000002e+01 0.000000000000000000e+00 0.000000000000000000e+00 0.000000000000000000e+00 1.442770699999999984e+01
1.333235700000000001e+01 0.000000000000000000e+00 0.000000000000000000e+00 0.000000000000000000e+00 1.490315599999999918e+01 0.000000000000000000e+00 0.000000000000000000e+00 0.000000000000000000e+00 1.444366999999999912e+01
1.308103299999999969e+01 0.000000000000000000e+00 0.000000000000000000e+00 0.000000000000000000e+00 1.562316299999999991e+01 0.000000000000000000e+00 0.000000000000000000e+00 0.000000000000000000e+00 1.441132099999999916e+01
1.321228299999999933e+01 0.000000000000000000e+00 0.000000000000000000e+00 0.000000000000000000e+00 1.482449000000000083e+01 0.000000000000000000e+00 0.000000000000000000e+00 0.000000000000000000e+00 1.451504500000000064e+01
1.321898299999999971e+01 0.000000000000000000e+00 0.000000000000000000e+00 0.000000000000000000e+00 1.513881800000000055e+01 0.000000000000000000e+00 0.000000000000000000e+00 0.000000000000000000e+00 1.430122000000000071e+01
1.331480400000000053e+01 0.000000000000000000e+00 0.000000000000000000e+00 0.000000000000000000e+00 1.481625299999999967e+01 0.000000000000000000e+00 0.000000000000000000e+00 0.000000000000000000e+00 1.427709399999999995e+01
1.337332900000000002e+01 0.000000000000000000e+00 0.000000000000000000e+00 0.000000000000000000e+00 1.531123999999999974e+01 0.000000000000000000e+00 0.000000000000000000e+00 0.000000000000000000e+00 1.433431599999999939e+01
1.333532499999999921e+01 0.000000000000000000e+00 0.000000000000000000e+00 0.000000000000000000e+00 1.512174399999999963e+01 0.000000000000000000e+00 0.000000000000000000e+00 0.000000000000000000e+00 1.413405700000000031e+01
1.298644799999999933e+01 0.000000000000000000e+00 0.000000000000000000e+00 0.000000000000000000e+00 1.502581900000000026e+01 0.000000000000000000e+00 0.000000000000000000e+00 0.000000000000000000e+00 1.393947900000000040e+01
1.323482899999999951e+01 0.000000000000000000e+00 0.000000000000000000e+00 0.000000000000000000e+00 1.477238099999999932e+01 0.000000000000000000e+00 0.000000000000000000e+00 0.000000000000000000e+00 1.412343500000000063e+01
1.290640299999999918e+01 0.000000000000000000e+00 0.000000000000000000e+00 0.000000000000000000e+00 1.506633000000000067e+01 0.000000000000000000e+00 0.000000000000000000e+00 0.000000000000000000e+00 1.440269100000000080e+01
1.319836500000000079e+01 0.000000000000000000e+00 0.000000000000000000e+00 0.000000000000000000e+00 1.502215999999999951e+01 0.000000000000000000e+00 0.000000000000000000e+00 0.000000000000000000e+00 1.408166499999999921e+01
1.324008099999999999e+01 0.000000000000000000e+00 0.000000000000000000e+00 0.000000000000000000e+00 1.469818500000000050e+01 0.000000000000000000e+00 0.000000000000000000e+00 0.000000000000000000e+00 1.416900599999999955e+01
1.334696399999999983e+01 0.000000000000000000e+00 0.000000000000000000e+00 0.000000000000000000e+00 1.525392599999999987e+01 0.000000000000000000e+00 0.000000000000000000e+00 0.000000000000000000e+00 1.394172400000000067e+01
1.326534900000000050e+01 0.000000000000000000e+00 0.000000000000000000e+00 0.000000000000000000e+00 1.508182700000000054e+01 0.000000000000000000e+00 0.000000000000000000e+00 0.000000000000000000e+00 1.394284999999999997e+01