-4.512582269999999698e+04
-4.512166330000000016e+04
-4.512329400000000169e+04
-4.512820410000000265e+04
-4.511694840000000113e+04
-4.512695640000000276e+04
-4.512954649999999674e+04
-4.513189680000000226e+04
-4.512361819999999716e+04
-4.512749719999999797e+04
-4.512923339999999735e+04
-4.512902060000000347e+04
-4.512826329999999871e+04
-4.512197609999999986e+04
-4.512151180000000022e+04
-4.512367919999999867e+04
-4.512615320000000065e+04
-4.511712619999999879e+04
-4.512785659999999916e+04
-4.513147299999999814e+04
-4.512737410000000091e+04
-4.512924790000000212e+04
-4.511946050000000105e+04
-4.512531670000000304e+04
-4.512633359999999811e+04
-4.512432439999999769e+04
-4.512607839999999851e+04
-4.512718579999999929e+04
-4.511905470000000059e+04
-4.511743910000000324e+04
-4.512143619999999646e+04
-4.513188249999999971e+04
-4.512916640000000189e+04
-4.513000110000000132e+04
-4.512796779999999853e+04
-4.512469589999999880e+04
-4.513155520000000251e+04
-4.511803110000000015e+04
-4.513007179999999789e+04
-4.511847780000000057e+04
-4.512683340000000317e+04
-4.511909960000000137e+04
-4.512705829999999696e+04
-4.512621259999999893e+04
-4.513101789999999892e+04
-4.512803319999999803e+04
-4.512231319999999687e+04
-4.512255920000000333e+04
-4.511455920000000333e+04
-4.512906369999999879e+04
-4.513138210000000254e+04
-4.512670330000000104e+04
-4.512945440000000235e+04
-4.512429980000000069e+04
-4.511328319999999803e+04
-4.512925349999999889e+04
-4.513118280000000232e+04
-4.512782620000000315e+04
-4.512568510000000242e+04
-4.512409670000000187e+04
-4.513222030000000086e+04
-4.511333430000000226e+04
-4.511781719999999768e+04
-4.512895509999999922e+04
-4.512171070000000327e+04
-4.513065989999999874e+04
-4.513298559999999998e+04
-4.512659580000000278e+04
-4.512507250000000204e+04
-4.512147239999999874e+04
-4.512365989999999874e+04
-4.512765129999999772e+04
-4.512859049999999843e+04
-4.512294750000000204e+04
-4.512655980000000272e+04
-4.512897480000000360e+04
-4.513001380000000063e+04
-4.512257779999999912e+04
-4.512885029999999824e+04
-4.512948189999999886e+04
-4.512733410000000003e+04
-4.512349139999999898e+04
-4.512646089999999822e+04
-4.512387690000000293e+04
-4.513151469999999972e+04
-4.513082729999999719e+04
-4.512695999999999913e+04
-4.512394060000000172e+04
-4.512966539999999804e+04
-4.512316679999999906e+04
-4.511556489999999758e+04
-4.513130200000000332e+04
-4.512126410000000033e+04
-4.512665830000000278e+04
-4.513095569999999861e+04
-4.512149919999999838e+04
-4.512457370000000083e+04
-4.512464469999999710e+04
-4.512551440000000002e+04
-4.513149369999999908e+04
-4.513083110000000306e+04
-4.513105359999999928e+04
-4.512231330000000162e+04
-4.512859260000000359e+04
-4.512937359999999899e+04
-4.513081739999999991e+04
-4.512433340000000317e+04
-4.512499659999999858e+04
-4.512405739999999787e+04
-4.512860270000000310e+04
-4.512185689999999886e+04
-4.512605460000000312e+04
-4.512835899999999674e+04
-4.512103899999999703e+04
-4.512606620000000112e+04
-4.512454409999999916e+04
-4.512011329999999725e+04
-4.513106100000000151e+04
-4.513155240000000049e+04
-4.512941670000000158e+04
-4.513166969999999856e+04
-4.512989809999999852e+04
-4.512362720000000263e+04
-4.512396940000000177e+04
-4.512973819999999978e+04
-4.513035850000000210e+04
-4.512185270000000310e+04
-4.511002049999999872e+04
-4.513082949999999983e+04
-4.512462269999999990e+04
-4.512129690000000119e+04
-4.513102440000000206e+04
-4.512268179999999847e+04
-4.513060089999999764e+04
-4.511687930000000051e+04
-4.512868729999999778e+04
-4.511420309999999881e+04
-4.513218589999999676e+04
-4.512904020000000310e+04
-4.512628190000000177e+04
-4.512470109999999841e+04
-4.512707519999999931e+04
-4.512810710000000108e+04
-4.512468579999999929e+04
-4.512863870000000315e+04
-4.513175280000000203e+04
-4.512731670000000304e+04
-4.511762339999999676e+04
-4.512686589999999705e+04
-4.512347060000000056e+04
-4.513128020000000106e+04
-4.512877489999999671e+04
-4.511378310000000056e+04
-4.512338979999999719e+04
-4.511665969999999652e+04
-4.512941279999999824e+04
-4.513018750000000000e+04
-4.512812539999999717e+04
-4.513078590000000258e+04
-4.512886589999999705e+04
-4.512018390000000363e+04
-4.512951380000000063e+04
-4.513070180000000255e+04
-4.512804329999999754e+04
-4.512290699999999924e+04
-4.512779000000000087e+04
-4.512490159999999742e+04
-4.512588629999999830e+04
-4.513064669999999751e+04
-4.512206139999999868e+04
-4.512345120000000315e+04
-4.512284919999999693e+04
-4.512853790000000299e+04
-4.512655509999999776e+04
-4.512860130000000208e+04
-4.512954499999999825e+04
-4.511819550000000163e+04
-4.512591449999999895e+04
-4.512771399999999994e+04
-4.512698870000000170e+04
-4.512725970000000234e+04
-4.512302949999999691e+04
-4.511226959999999963e+04
-4.512460820000000240e+04
-4.512648539999999775e+04
-4.512475179999999818e+04
-4.513127229999999690e+04
-4.512940540000000328e+04
-4.513067770000000019e+04
-4.512463719999999739e+04
-4.512707480000000214e+04
-4.512946689999999944e+04
-4.512499210000000312e+04
-4.513053910000000178e+04
-4.512889549999999872e+04
-4.512765840000000026e+04
-4.512473019999999815e+04
-4.512083669999999984e+04
-4.512203080000000045e+04
-4.512634019999999873e+04
-4.510405359999999928e+04
-4.512789209999999730e+04
-4.512009760000000097e+04
-4.512828869999999733e+04
-4.511852279999999882e+04
-4.512893430000000080e+04
-4.512165170000000217e+04
-4.512088969999999972e+04
-4.512657269999999698e+04
-4.513140249999999651e+04
-4.512852100000000064e+04
-4.513175690000000031e+04
-4.512628480000000127e+04
-4.510125589999999647e+04
-4.511382089999999880e+04
-4.512517079999999987e+04
-4.512992100000000210e+04
-4.513247320000000036e+04
-4.512437649999999849e+04
-4.511796059999999852e+04
-4.512015570000000298e+04
-4.513047929999999906e+04
-4.511306710000000021e+04
-4.511735390000000189e+04
-4.512858310000000347e+04
-4.513097340000000258e+04
-4.512020810000000347e+04
-4.512742560000000231e+04
-4.512470910000000003e+04
-4.512425130000000354e+04
-4.512746220000000176e+04
-4.513163999999999942e+04
-4.512284189999999944e+04
-4.512662400000000343e+04
-4.513115159999999742e+04
-4.512690419999999722e+04
-4.512632289999999921e+04
-4.512876670000000013e+04
-4.512759949999999662e+04
-4.511898670000000129e+04
-4.510475130000000354e+04
-4.512674059999999736e+04
-4.512133030000000144e+04
-4.513163249999999971e+04
-4.512025950000000012e+04
-4.512652350000000297e+04
-4.512182789999999659e+04
-4.513136970000000292e+04
-4.512723999999999796e+04
-4.512764450000000215e+04
-4.511772200000000157e+04
-4.512895330000000104e+04
-4.511480019999999786e+04
-4.512632949999999983e+04
-4.512796760000000359e+04
-4.512530539999999746e+04
-4.512981160000000091e+04
-4.512294769999999698e+04
-4.511432450000000244e+04
-4.512544860000000335e+04
-4.513052640000000247e+04
-4.512712240000000020e+04
-4.512481109999999899e+04
-4.512623580000000220e+04
-4.511308980000000156e+04
-4.512433030000000144e+04
-4.511875220000000263e+04
-4.512367809999999736e+04
-4.512177309999999852e+04
-4.513065529999999853e+04
-4.512462140000000363e+04
-4.512557869999999821e+04
-4.510800529999999708e+04
-4.512839710000000196e+04
-4.511912780000000203e+04
-4.513111200000000099e+04
-4.512868200000000070e+04
-4.512610270000000310e+04
-4.512792560000000231e+04
-4.512605060000000231e+04
-4.512561680000000342e+04
-4.511774169999999867e+04
-4.512546089999999822e+04
-4.513182379999999830e+04
-4.512822280000000319e+04
-4.512550149999999849e+04
-4.512073230000000331e+04
-4.512779819999999745e+04
-4.512957850000000326e+04
-4.512606250000000000e+04
-4.511990690000000177e+04
-4.511980810000000201e+04
-4.512866230000000360e+04
-4.513306489999999758e+04
-4.513019679999999789e+04
-4.512315209999999934e+04
-4.512886349999999948e+04
-4.512417629999999917e+04
-4.511939729999999690e+04
-4.511791679999999906e+04
-4.512361250000000291e+04
-4.513075669999999809e+04
-4.512123359999999957e+04
-4.513017309999999998e+04
-4.512920010000000184e+04
-4.512578540000000066e+04
-4.511237260000000242e+04
-4.512853229999999894e+04
-4.512746989999999641e+04
-4.512605789999999979e+04
-4.512566900000000169e+04
-4.512699379999999655e+04
-4.512225480000000243e+04
-4.512220850000000064e+04
-4.512611879999999655e+04
-4.512971630000000005e+04
-4.511502369999999792e+04
-4.513124070000000211e+04
-4.512779970000000321e+04
-4.511857729999999719e+04
-4.512435080000000016e+04
-4.513054830000000220e+04
-4.512503319999999803e+04
-4.512552449999999953e+04
-4.512967549999999756e+04
-4.512858669999999984e+04
-4.512206210000000283e+04
-4.512293779999999970e+04
-4.512809419999999955e+04
-4.512676350000000093e+04
-4.512904379999999946e+04
-4.512797679999999673e+04
-4.511680780000000232e+04
-4.512926419999999780e+04
-4.512442500000000291e+04
-4.512989749999999913e+04
-4.512942889999999898e+04
-4.511263229999999749e+04
-4.511519210000000021e+04
-4.512279970000000321e+04
-4.512719640000000072e+04
-4.512472740000000340e+04
-4.512953820000000269e+04
-4.512885409999999683e+04
-4.512583720000000176e+04
-4.511980780000000232e+04
-4.513040469999999914e+04
-4.513305799999999726e+04
-4.509854170000000158e+04
-4.512874220000000059e+04
-4.513048350000000210e+04
-4.512891429999999673e+04
-4.513248339999999735e+04
-4.512522419999999693e+04
-4.512777380000000267e+04
-4.513124730000000272e+04
-4.512470449999999983e+04
-4.513125319999999920e+04
-4.512721970000000147e+04
-4.512438749999999709e+04
-4.513084919999999693e+04
-4.512153719999999885e+04
-4.511425800000000163e+04
-4.512622080000000278e+04
-4.512130219999999827e+04
-4.512431790000000183e+04
-4.513009410000000207e+04
-4.513087140000000363e+04
-4.512245730000000185e+04
-4.512623530000000028e+04
-4.513053439999999682e+04
-4.512425160000000324e+04
-4.511805930000000080e+04
-4.512600039999999717e+04
-4.512695169999999780e+04
-4.511418220000000292e+04
-4.512412479999999778e+04
-4.511153229999999894e+04
-4.512972750000000087e+04
-4.512940090000000055e+04
-4.513143849999999657e+04
-4.512937810000000172e+04
-4.512122909999999683e+04
-4.512903390000000218e+04
-4.512891410000000178e+04
-4.513103990000000340e+04
-4.512989579999999842e+04
-4.511770979999999690e+04
-4.510581730000000243e+04
-4.510447589999999764e+04
-4.512490660000000207e+04
-4.511692379999999685e+04
-4.512580030000000261e+04
-4.513030189999999857e+04
-4.510793499999999767e+04
-4.512381380000000354e+04
-4.513094550000000163e+04
-4.511490969999999652e+04
-4.512142330000000220e+04
-4.512004450000000361e+04
-4.513107439999999769e+04
-4.512081670000000304e+04
-4.510634060000000318e+04
-4.512036860000000161e+04
-4.511703209999999672e+04
-4.512897290000000066e+04
-4.512757400000000052e+04
-4.512416380000000208e+04
-4.512751389999999810e+04
-4.512337909999999829e+04
-4.512331629999999859e+04
-4.512712580000000162e+04
-4.513172379999999976e+04
-4.511804800000000250e+04
-4.512373260000000300e+04
-4.512577410000000236e+04
-4.513118499999999767e+04
-4.512440159999999742e+04
-4.512213599999999860e+04
-4.512804970000000321e+04
-4.512926180000000022e+04
-4.512659850000000006e+04
-4.512786669999999867e+04
-4.512492029999999795e+04
-4.512530139999999665e+04
-4.511869430000000284e+04
-4.512244720000000234e+04
-4.512830640000000130e+04
-4.512481250000000000e+04
-4.511852090000000317e+04
-4.512153250000000116e+04
-4.513054579999999987e+04
-4.513184829999999783e+04
-4.512041790000000037e+04
-4.513054959999999846e+04
-4.512399199999999837e+04
-4.511218660000000091e+04
-4.512056089999999676e+04
-4.512123399999999674e+04
-4.513106410000000324e+04
-4.512947080000000278e+04
-4.511976999999999680e+04
-4.513060599999999977e+04
-4.512484199999999691e+04
-4.511828459999999905e+04
-4.512935409999999683e+04
-4.512783810000000085e+04
-4.512991520000000310e+04
-4.512799500000000262e+04
-4.513060960000000341e+04
-4.512923939999999857e+04
-4.512677539999999863e+04
-4.512521220000000176e+04
-4.513246940000000177e+04
-4.512958660000000236e+04
-4.512898730000000069e+04
-4.512264949999999953e+04
-4.512540639999999985e+04
-4.512304679999999644e+04
-4.509989179999999760e+04
-4.512488390000000072e+04
-4.512852229999999690e+04
-4.513096269999999640e+04
-4.512838859999999841e+04
-4.512640200000000186e+04
-4.512845449999999983e+04
-4.512630329999999958e+04
-4.513113730000000214e+04
-4.511993260000000009e+04
-4.513102240000000165e+04
-4.512204819999999745e+04
-4.512241969999999856e+04
-4.512596070000000327e+04
-4.512700409999999829e+04
-4.512267250000000058e+04
-4.513072970000000350e+04
-4.511731960000000254e+04
-4.512986290000000008e+04
-4.512303760000000329e+04
-4.512837030000000232e+04
-4.513027979999999661e+04
-4.512955610000000161e+04
-4.512446820000000298e+04
-4.511129589999999735e+04
-4.512515370000000257e+04
-4.512331109999999899e+04
-4.512094030000000203e+04
-4.512770229999999719e+04
-4.512131309999999939e+04
-4.513140419999999722e+04
-4.512773950000000332e+04
-4.512904340000000229e+04
-4.512719550000000163e+04
-4.512793770000000222e+04
-4.512837049999999726e+04
-4.510996239999999671e+04
-4.512930619999999908e+04
-4.512917680000000109e+04
-4.511182940000000235e+04
-4.512566790000000037e+04
-4.512805920000000333e+04
-4.512625620000000345e+04
-4.513146089999999822e+04
-4.512608980000000156e+04
-4.512198150000000169e+04
-4.511952380000000267e+04
-4.513044539999999688e+04
-4.512855090000000200e+04
-4.512615849999999773e+04
-4.512349029999999766e+04
-4.512037909999999829e+04
-4.512715729999999894e+04
-4.512949970000000030e+04
-4.512772370000000228e+04
-4.512937879999999859e+04
-4.512373399999999674e+04
-4.512783030000000144e+04
-4.512469980000000214e+04
-4.512172899999999936e+04
-4.512961140000000159e+04
-4.512332190000000264e+04
-4.511424089999999705e+04
-4.511198189999999886e+04
-4.512729929999999877e+04
-4.512544600000000355e+04
-4.512178719999999885e+04
-4.511990770000000339e+04
-4.512888990000000194e+04
-4.512068570000000182e+04
-4.511933759999999893e+04
-4.512563300000000163e+04
-4.512953070000000298e+04
-4.512499229999999807e+04
-4.512550340000000142e+04
-4.512995949999999721e+04
-4.512885229999999865e+04
-4.512707699999999750e+04
-4.511701099999999860e+04
-4.510735439999999653e+04
-4.512881689999999799e+04
-4.512771940000000177e+04
-4.512986260000000038e+04
-4.512601499999999942e+04
-4.512479179999999906e+04
-4.511272770000000310e+04
-4.512412180000000080e+04
-4.511482289999999921e+04
-4.512102279999999882e+04
-4.512219249999999738e+04
-4.512614699999999721e+04
-4.513058400000000256e+04
-4.512782549999999901e+04
-4.512516129999999976e+04
-4.513067319999999745e+04
-4.511804679999999644e+04
-4.512778050000000076e+04
-4.512789360000000306e+04
-4.512876170000000275e+04
-4.512734859999999753e+04
-4.512779920000000129e+04
-4.511546209999999701e+04
-4.511242319999999745e+04
-4.512610459999999875e+04
-4.512745850000000064e+04
-4.512916030000000319e+04
-4.512371919999999955e+04
-4.512586349999999948e+04
-4.510945330000000104e+04
-4.512242470000000321e+04
-4.512192079999999987e+04
-4.511804819999999745e+04
-4.512890449999999691e+04
-4.510590679999999702e+04
-4.513082329999999638e+04
-4.511877799999999843e+04
-4.509932310000000143e+04
-4.512416580000000249e+04
-4.513065559999999823e+04
-4.512657349999999860e+04
-4.511896889999999985e+04
-4.512236600000000180e+04
-4.512687389999999868e+04
-4.512397320000000036e+04
-4.512491530000000057e+04
-4.511928510000000097e+04
-4.511902189999999973e+04
-4.512443329999999696e+04
-4.513024149999999645e+04
-4.512582029999999941e+04
-4.512525009999999747e+04
-4.511679780000000028e+04
-4.512404340000000229e+04
-4.512990510000000359e+04
-4.512834100000000035e+04
-4.510620810000000347e+04
-4.511999270000000251e+04
-4.511220040000000154e+04
-4.512495459999999730e+04
-4.512271880000000237e+04
-4.512568400000000111e+04
-4.511844030000000203e+04
-4.512501320000000123e+04
-4.512743819999999687e+04
-4.512662279999999737e+04
-4.511254430000000139e+04
-4.512483520000000135e+04
-4.513012219999999797e+04
-4.511533679999999731e+04
-4.513061950000000070e+04
-4.512738910000000033e+04
-4.513229529999999795e+04
-4.513197340000000258e+04
-4.512926440000000002e+04
-4.512664489999999932e+04
-4.511646050000000105e+04
-4.512984999999999854e+04
-4.513103040000000328e+04
-4.513100379999999859e+04
-4.512717220000000088e+04
-4.512769709999999759e+04
-4.512408729999999923e+04
-4.512637430000000313e+04
-4.511982059999999910e+04
-4.512387249999999767e+04
-4.512267839999999705e+04
-4.512888769999999931e+04
-4.512504600000000210e+04
-4.512581049999999959e+04
-4.512446259999999893e+04
-4.512218140000000130e+04
-4.512216159999999945e+04
-4.512827259999999660e+04
-4.512502120000000286e+04
-4.513007170000000042e+04
-4.512490879999999743e+04
-4.513222320000000036e+04
-4.512486869999999908e+04
-4.513014400000000023e+04
-4.512729609999999957e+04
-4.512579080000000249e+04
-4.512539940000000206e+04
-4.513023610000000190e+04
-4.512742689999999857e+04
-4.512338029999999708e+04
-4.512878680000000168e+04
-4.512634560000000056e+04
-4.513016810000000260e+04
-4.512595650000000023e+04
-4.512329959999999846e+04
-4.513039970000000176e+04
-4.513167650000000140e+04
-4.512819789999999921e+04
-4.511298930000000109e+04
-4.512609659999999712e+04
-4.512887969999999768e+04
-4.512689239999999700e+04
-4.512953779999999824e+04
-4.512212769999999728e+04
-4.512713450000000012e+04
-4.512789259999999922e+04
-4.512553300000000309e+04
-4.511990239999999903e+04
-4.512559509999999864e+04
-4.512938079999999900e+04
-4.512540189999999711e+04
-4.512849410000000353e+04
-4.512997669999999925e+04
-4.511792270000000281e+04
-4.508870010000000184e+04
-4.512950319999999920e+04
-4.512937660000000324e+04
-4.512984479999999894e+04
-4.512754729999999836e+04
-4.512213779999999679e+04
-4.512227100000000064e+04
-4.512457669999999780e+04
-4.512234079999999813e+04
-4.511489149999999790e+04
-4.512836039999999775e+04
-4.512778010000000359e+04
-4.512193340000000171e+04
-4.512197179999999935e+04
-4.513011430000000109e+04
-4.512622480000000360e+04
-4.512773339999999735e+04
-4.513036660000000120e+04
-4.511504679999999644e+04
-4.513081169999999838e+04
-4.512109799999999814e+04
-4.512228190000000177e+04
-4.512560680000000139e+04
-4.512858499999999913e+04
-4.512908260000000155e+04
-4.512453830000000016e+04
-4.512807880000000296e+04
-4.512650069999999687e+04
-4.512100789999999688e+04
-4.510392960000000312e+04
-4.512973419999999896e+04
-4.512767639999999665e+04
-4.512865479999999661e+04
-4.512109249999999884e+04
-4.512620990000000165e+04
-4.513118370000000141e+04
-4.512602470000000176e+04
-4.512773040000000037e+04
-4.513040249999999651e+04
-4.513105159999999887e+04
-4.510133600000000297e+04
-4.512021549999999843e+04
-4.512936879999999655e+04
-4.512852070000000094e+04
-4.512144180000000051e+04
-4.512217839999999705e+04
-4.512885680000000139e+04
-4.513012649999999849e+04
-4.512015080000000307e+04
-4.512897570000000269e+04
-4.512728429999999935e+04
-4.513051929999999993e+04
-4.512675880000000325e+04
-4.512746549999999843e+04
-4.512771659999999974e+04
-4.512602010000000155e+04
-4.512932080000000133e+04
-4.510247280000000319e+04
-4.513069370000000345e+04
-4.512049719999999797e+04
-4.512472609999999986e+04
-4.512995399999999790e+04
-4.513068970000000263e+04
-4.512861159999999654e+04
-4.512754499999999825e+04
-4.512498679999999877e+04
-4.512514989999999671e+04
-4.512610470000000350e+04
-4.513052449999999953e+04
-4.512851720000000205e+04
-4.512853970000000118e+04
-4.512399629999999888e+04
-4.513053319999999803e+04
-4.512657590000000346e+04
-4.512780350000000180e+04
-4.513100630000000092e+04
-4.512130359999999928e+04
-4.512452990000000136e+04
-4.511728869999999733e+04
-4.512932020000000193e+04
-4.512702010000000155e+04
-4.512927539999999863e+04
-4.512402079999999842e+04
-4.512332970000000205e+04
-4.512617719999999827e+04
-4.512464489999999932e+04
-4.512131710000000021e+04
-4.512220049999999901e+04
-4.513124760000000242e+04
-4.512568140000000130e+04
-4.512969410000000062e+04
-4.511223460000000341e+04
-4.512945360000000073e+04
-4.512749880000000121e+04
-4.512857390000000305e+04
-4.512899510000000009e+04
-4.512717790000000241e+04
-4.512620889999999781e+04
-4.512288569999999891e+04
-4.512408239999999932e+04
-4.512160770000000048e+04
-4.512986329999999725e+04
-4.512937140000000363e+04
-4.512849779999999737e+04
-4.512638700000000244e+04
-4.512843400000000111e+04
-4.512972520000000077e+04
-4.513023990000000049e+04
-4.512775880000000325e+04
-4.512238160000000062e+04
-4.512629450000000361e+04
-4.512356569999999920e+04
-4.512837849999999889e+04
-4.512173079999999754e+04
-4.512788010000000213e+04
-4.512638829999999871e+04
-4.512237559999999939e+04
-4.512479589999999735e+04
-4.511565380000000005e+04
-4.512177709999999934e+04
-4.511625310000000172e+04
-4.512671489999999903e+04
-4.513126249999999709e+04
-4.512832510000000184e+04
-4.512955750000000262e+04
-4.512500710000000254e+04
-4.512471070000000327e+04
-4.512702300000000105e+04
-4.512240170000000217e+04
-4.513042280000000028e+04
-4.512889800000000105e+04
-4.513081339999999909e+04
-4.512973410000000149e+04
-4.512883920000000217e+04
-4.511761639999999898e+04
-4.513029729999999836e+04
-4.512461520000000019e+04
-4.511900749999999971e+04
-4.512859739999999874e+04
-4.513150680000000284e+04
-4.512564839999999822e+04
-4.512252599999999802e+04
-4.513151600000000326e+04
-4.512937350000000151e+04
-4.512222329999999783e+04
-4.513039959999999701e+04
-4.512725779999999941e+04
-4.512394079999999667e+04
-4.512061290000000008e+04
-4.512881870000000345e+04
-4.511223870000000170e+04
-4.511855720000000292e+04
-4.512865409999999974e+04
-4.512637649999999849e+04
-4.512755789999999979e+04
-4.513039239999999700e+04
-4.513095620000000054e+04
-4.512863850000000093e+04
-4.513045459999999730e+04
-4.511613530000000173e+04
-4.511844090000000142e+04
-4.512584320000000298e+04
-4.512440380000000005e+04
-4.511701180000000022e+04
-4.513201959999999963e+04
-4.512478500000000349e+04
-4.512581010000000242e+04
-4.512425579999999900e+04
-4.512931399999999849e+04
-4.512056380000000354e+04
-4.512736220000000321e+04
-4.512559829999999783e+04
-4.512613900000000285e+04
-4.512919180000000051e+04
-4.512936269999999786e+04
-4.511733669999999984e+04
-4.512516939999999886e+04
-4.512734500000000116e+04
-4.512123569999999745e+04
-4.513026460000000225e+04
-4.512559139999999752e+04
-4.512806330000000162e+04
-4.511910190000000148e+04
-4.511623000000000320e+04
-4.512011759999999776e+04
-4.512333080000000336e+04
-4.512971790000000328e+04
-4.512308499999999913e+04
-4.513061660000000120e+04
-4.512516300000000047e+04
-4.512557499999999709e+04
-4.512202390000000014e+04
-4.512836690000000090e+04
-4.512614669999999751e+04
-4.512894430000000284e+04
-4.512809610000000248e+04
-4.513095979999999690e+04
-4.513016679999999906e+04
-4.511779559999999765e+04
-4.512594589999999880e+04
-4.513094380000000092e+04
-4.512736170000000129e+04
-4.512886669999999867e+04
-4.512328669999999693e+04
-4.512983570000000327e+04
-4.512872460000000137e+04
-4.512741150000000198e+04
-4.513021590000000288e+04
-4.512403160000000207e+04
-4.512819980000000214e+04
-4.512999119999999675e+04
-4.512335540000000037e+04
-4.512085139999999956e+04
-4.512365860000000248e+04
-4.512653910000000178e+04
-4.513027610000000277e+04
-4.511964680000000226e+04
-4.511386890000000130e+04
-4.512429529999999795e+04
-4.511536869999999908e+04
-4.512969550000000163e+04
-4.512870190000000002e+04
-4.513140849999999773e+04
-4.512573399999999674e+04
-4.513130840000000171e+04
-4.511617790000000241e+04
-4.513016359999999986e+04
-4.512606650000000081e+04
-4.512075190000000293e+04
-4.511572389999999723e+04
-4.512735899999999674e+04
-4.512246929999999702e+04
-4.512585979999999836e+04
-4.513051909999999771e+04
-4.512602889999999752e+04
-4.513099059999999736e+04
-4.512887240000000020e+04
-4.512075069999999687e+04
-4.512287720000000263e+04
-4.513072269999999844e+04
-4.512796549999999843e+04
-4.513194370000000345e+04
-4.512993849999999657e+04
-4.512842179999999644e+04
-4.512600920000000042e+04
-4.512039979999999923e+04
-4.512617220000000088e+04
-4.513108509999999660e+04
-4.512730369999999675e+04
-4.513006190000000061e+04
-4.512770300000000134e+04
-4.512054630000000179e+04
-4.512758269999999902e+04
-4.513098889999999665e+04
-4.512646659999999974e+04
-4.511220549999999639e+04
-4.512302799999999843e+04
-4.513009139999999752e+04
-4.512596239999999671e+04
-4.512931199999999808e+04
-4.512825469999999768e+04
-4.512979950000000099e+04
-4.513071970000000147e+04
-4.512111729999999807e+04
-4.513055399999999645e+04
-4.513214880000000267e+04
-4.510438519999999698e+04
-4.511345509999999922e+04
-4.511741399999999703e+04
-4.512434999999999854e+04
-4.512641030000000319e+04
-4.512028340000000026e+04
-4.512783729999999923e+04
-4.513029679999999644e+04
-4.512743910000000324e+04
-4.511986669999999867e+04
-4.511733720000000176e+04
-4.512585749999999825e+04
-4.512811589999999705e+04
-4.511640709999999672e+04
-4.513008189999999740e+04
-4.512487960000000021e+04
-4.512539510000000155e+04
-4.511775759999999718e+04
-4.512654800000000250e+04
-4.512605159999999887e+04
-4.511507729999999719e+04
-4.512879060000000027e+04
-4.512742560000000231e+04
-4.512803029999999853e+04
-4.512642899999999645e+04
-4.511904250000000320e+04
-4.512570870000000286e+04
-4.512433189999999740e+04
-4.513145169999999780e+04
-4.512297740000000340e+04
-4.513065350000000035e+04
-4.512472460000000137e+04
-4.512865690000000177e+04
-4.512733140000000276e+04
-4.512707949999999983e+04
-4.512485059999999794e+04
-4.512253899999999703e+04
-4.512865209999999934e+04
-4.511849539999999979e+04
-4.512723610000000190e+04
-4.512328259999999864e+04
-4.512598580000000220e+04
-4.512319520000000193e+04
-4.512712490000000253e+04
-4.512655189999999857e+04
-4.512904600000000210e+04
-4.512096659999999974e+04
-4.513014959999999701e+04
-4.512007630000000063e+04
-4.512746719999999914e+04
-4.512258840000000055e+04
-4.512761669999999867e+04
-4.512853519999999844e+04
-4.512830329999999958e+04
-4.511982209999999759e+04
-4.512793800000000192e+04
-4.512719400000000314e+04
-4.512988709999999992e+04
-4.512291849999999977e+04
-4.512705279999999766e+04
-4.512624119999999675e+04
-4.512230580000000191e+04
-4.512888160000000062e+04
-4.512669460000000254e+04
-4.512206689999999799e+04
-4.513225600000000122e+04
