-3.007501610000000073e+04
-3.007084590000000026e+04
-3.007381999999999971e+04
-3.007321819999999934e+04
-3.007714719999999943e+04
-3.007676120000000083e+04
-3.007686070000000109e+04
-3.007619340000000011e+04
-3.007564150000000154e+04
-3.007620209999999861e+04
-3.007782860000000073e+04
-3.008167970000000059e+04
-3.007314059999999881e+04
-3.007595369999999821e+04
-3.007572950000000128e+04
-3.007636460000000079e+04
-3.007811790000000110e+04
-3.007878359999999884e+04
-3.007528289999999834e+04
-3.007719009999999980e+04
-3.007427200000000084e+04
-3.007683150000000023e+04
-3.007582119999999850e+04
-3.007910520000000179e+04
-3.007238739999999962e+04
-3.007780619999999908e+04
-3.007773110000000088e+04
-3.007568019999999888e+04
-3.007349859999999899e+04
-3.007705529999999999e+04
-3.007271600000000035e+04
-3.007728580000000147e+04
-3.007727000000000044e+04
-3.007494529999999941e+04
-3.007579809999999998e+04
-3.007340320000000065e+04
-3.007488910000000033e+04
-3.007633840000000055e+04
-3.007733060000000114e+04
-3.007311249999999927e+04
-3.007517299999999886e+04
-3.007640350000000035e+04
-3.007672660000000178e+04
-3.007832549999999901e+04
-3.007774850000000151e+04
-3.007832969999999841e+04
-3.007627679999999964e+04
-3.007696740000000136e+04
-3.007828879999999845e+04
-3.007571879999999874e+04
-3.007594700000000012e+04
-3.007659519999999975e+04
-3.007460610000000088e+04
-3.007559240000000136e+04
-3.007741770000000179e+04
-3.007563829999999871e+04
-3.007116770000000179e+04
-3.007590230000000156e+04
-3.007847969999999987e+04
-3.007785499999999956e+04
-3.007594440000000031e+04
-3.007670439999999871e+04
-3.007474360000000161e+04
-3.007777040000000125e+04
-3.007808850000000166e+04
-3.007209549999999945e+04
-3.007647910000000047e+04
-3.007656590000000142e+04
-3.007691389999999956e+04
-3.007861630000000150e+04
-3.007579650000000038e+04
-3.007585829999999987e+04
-3.007345100000000093e+04
-3.007952820000000065e+04
-3.007866639999999825e+04
-3.007660550000000148e+04
-3.007382549999999901e+04
-3.007782419999999911e+04
-3.007735970000000088e+04
-3.007739689999999973e+04
-3.007424520000000120e+04
-3.007675639999999839e+04
-3.007726979999999821e+04
-3.007708480000000054e+04
-3.007500470000000132e+04
-3.007731799999999930e+04
-3.007197430000000168e+04
-3.007692580000000089e+04
-3.007590539999999964e+04
-3.007638039999999819e+04
-3.007705370000000039e+04
-3.007628289999999834e+04
-3.007644940000000133e+04
-3.007520530000000144e+04
-3.007666460000000006e+04
-3.008135629999999946e+04
-3.007554270000000179e+04
-3.007849160000000120e+04
-3.007622769999999946e+04
-3.007355800000000090e+04
-3.007940360000000146e+04
-3.007968590000000040e+04
-3.007167980000000171e+04
-3.007644989999999962e+04
-3.007491939999999886e+04
-3.007230089999999836e+04
-3.007897790000000168e+04
-3.007719740000000093e+04
-3.007999699999999939e+04
-3.007646169999999984e+04
-3.007474469999999928e+04
-3.007440780000000086e+04
-3.007069389999999839e+04
-3.007659490000000005e+04
-3.007210689999999886e+04
-3.007805900000000111e+04
-3.007620279999999912e+04
-3.007316419999999925e+04
-3.007469099999999889e+04
-3.007347950000000128e+04
-3.007924469999999928e+04
-3.007540220000000045e+04
-3.007534939999999915e+04
-3.007798470000000088e+04
-3.007696649999999863e+04
-3.007549780000000101e+04
-3.007152909999999974e+04
-3.007671329999999944e+04
-3.007629019999999946e+04
-3.007467859999999928e+04
-3.007918649999999980e+04
-3.007748949999999968e+04
-3.007375630000000092e+04
-3.007543110000000161e+04
-3.007749000000000160e+04
-3.007117840000000069e+04
-3.007288929999999891e+04
-3.007446830000000045e+04
-3.007527999999999884e+04
-3.007212670000000071e+04
-3.007297350000000006e+04
-3.007474970000000030e+04
-3.007586969999999928e+04
-3.008078389999999854e+04
-3.007675409999999829e+04
-3.007567469999999958e+04
-3.007311709999999948e+04
-3.007566140000000087e+04
-3.007549450000000070e+04
-3.007368189999999959e+04
-3.007760489999999845e+04
-3.007735399999999936e+04
-3.007483030000000144e+04
-3.007454950000000099e+04
-3.007704409999999916e+04
-3.007024889999999868e+04
-3.007599959999999919e+04
-3.007492650000000140e+04
-3.007556429999999818e+04
-3.008124940000000061e+04
-3.007845860000000175e+04
-3.007787069999999949e+04
-3.007518620000000010e+04
-3.008133239999999932e+04
-3.007676209999999992e+04
-3.007683169999999882e+04
-3.007420699999999852e+04
-3.007884049999999843e+04
-3.008008970000000045e+04
-3.007626750000000175e+04
-3.007560020000000077e+04
-3.007349820000000182e+04
-3.007580930000000080e+04
-3.007428529999999955e+04
-3.007451559999999881e+04
-3.007736650000000009e+04
-3.007560210000000006e+04
-3.007137099999999919e+04
-3.007552530000000115e+04
-3.007653169999999955e+04
-3.007378180000000066e+04
-3.007427739999999903e+04
-3.007510429999999906e+04
-3.007672869999999966e+04
-3.007351150000000052e+04
-3.007580640000000130e+04
-3.007446860000000015e+04
-3.007696399999999994e+04
-3.007686909999999989e+04
-3.007669830000000002e+04
-3.007535480000000098e+04
-3.008161040000000139e+04
-3.007763060000000041e+04
-3.007758069999999861e+04
-3.007230789999999979e+04
-3.007760410000000047e+04
-3.007079300000000148e+04
-3.007817569999999978e+04
-3.007457189999999900e+04
-3.007740859999999884e+04
-3.007432310000000143e+04
-3.007745560000000114e+04
-3.007919029999999839e+04
-3.007368360000000030e+04
-3.007615869999999995e+04
-3.007756820000000153e+04
-3.007248619999999937e+04
-3.007603619999999864e+04
-3.007532690000000002e+04
-3.007711720000000059e+04
-3.007826450000000114e+04
-3.007902779999999984e+04
-3.007739530000000013e+04
-3.007361669999999867e+04
-3.007735489999999845e+04
-3.007610259999999835e+04
-3.007880830000000060e+04
-3.007375100000000020e+04
-3.007788899999999921e+04
-3.006927880000000005e+04
-3.007413720000000103e+04
-3.008037659999999960e+04
-3.007254939999999988e+04
-3.007497660000000178e+04
-3.007315989999999874e+04
-3.007404479999999967e+04
-3.007616890000000058e+04
-3.007453889999999956e+04
-3.007240239999999903e+04
-3.007474429999999847e+04
-3.007497030000000086e+04
-3.007489219999999841e+04
-3.007287779999999839e+04
-3.007384860000000117e+04
-3.007859720000000016e+04
-3.007333220000000074e+04
-3.007303220000000147e+04
-3.007096489999999903e+04
-3.007834360000000015e+04
-3.007562259999999878e+04
-3.007556910000000062e+04
-3.007414870000000155e+04
-3.007863530000000173e+04
-3.007660889999999927e+04
-3.007528910000000178e+04
-3.007605659999999989e+04
-3.007731599999999889e+04
-3.007701399999999921e+04
-3.007868809999999939e+04
-3.007845460000000094e+04
-3.007810039999999935e+04
-3.007417239999999947e+04
-3.007280370000000039e+04
-3.007699659999999858e+04
-3.007603080000000045e+04
-3.007946619999999893e+04
-3.007693159999999989e+04
-3.007544210000000021e+04
-3.007342499999999927e+04
-3.007511040000000139e+04
-3.007485610000000088e+04
-3.007698779999999897e+04
-3.007211829999999827e+04
-3.007786170000000129e+04
-3.007479260000000068e+04
-3.007913560000000143e+04
-3.007785229999999865e+04
-3.007689329999999973e+04
-3.007631309999999939e+04
-3.007485489999999845e+04
-3.007459960000000137e+04
-3.007637919999999940e+04
-3.007602110000000175e+04
-3.007735859999999957e+04
-3.007952839999999924e+04
-3.007756309999999939e+04
-3.007359200000000055e+04
-3.007313149999999951e+04
-3.007576610000000073e+04
-3.007728039999999964e+04
-3.007705579999999827e+04
-3.007614400000000023e+04
-3.007818590000000040e+04
-3.007781100000000151e+04
-3.007636530000000130e+04
-3.007687629999999990e+04
-3.007377869999999893e+04
-3.007670469999999841e+04
-3.007282470000000103e+04
-3.007667050000000017e+04
-3.007437540000000081e+04
-3.007533150000000023e+04
-3.008021589999999924e+04
-3.007519250000000102e+04
-3.008028529999999955e+04
-3.007610380000000077e+04
-3.007448110000000088e+04
-3.007453470000000016e+04
-3.007345219999999972e+04
-3.007524409999999989e+04
-3.007453580000000147e+04
-3.007782709999999861e+04
-3.007279569999999876e+04
-3.007514059999999881e+04
-3.007472360000000117e+04
-3.007484519999999975e+04
-3.007735199999999895e+04
-3.007621630000000005e+04
-3.007939660000000003e+04
-3.007672269999999844e+04
-3.007683420000000115e+04
-3.007572910000000047e+04
-3.007994480000000112e+04
-3.007451759999999922e+04
-3.007920490000000063e+04
-3.007560540000000037e+04
-3.007409939999999915e+04
-3.007556420000000071e+04
-3.007680459999999948e+04
-3.007864199999999983e+04
-3.007495060000000012e+04
-3.007792789999999877e+04
-3.007399049999999988e+04
-3.007767580000000089e+04
-3.007534049999999843e+04
-3.007695190000000002e+04
-3.008022750000000087e+04
-3.007744759999999951e+04
-3.007801759999999922e+04
-3.007780649999999878e+04
-3.007361209999999846e+04
-3.007666730000000098e+04
-3.007465499999999884e+04
-3.007915309999999954e+04
-3.007126329999999871e+04
-3.007883880000000136e+04
-3.007817559999999867e+04
-3.007845049999999901e+04
-3.007559579999999914e+04
-3.007398730000000069e+04
-3.007393170000000100e+04
-3.008002760000000126e+04
-3.007699799999999959e+04
-3.007845070000000123e+04
-3.007107259999999951e+04
-3.007701829999999973e+04
-3.007821649999999863e+04
-3.007623089999999866e+04
-3.007397179999999935e+04
-3.007492239999999947e+04
-3.007658090000000084e+04
-3.007546600000000035e+04
-3.007655219999999827e+04
-3.007309960000000137e+04
-3.007403199999999924e+04
-3.007251759999999922e+04
-3.007644110000000001e+04
-3.007671440000000075e+04
-3.007795829999999842e+04
-3.007331009999999878e+04
-3.007447699999999895e+04
-3.007156950000000143e+04
-3.007101350000000093e+04
-3.007561170000000129e+04
-3.007674780000000101e+04
-3.007564770000000135e+04
-3.007625470000000132e+04
-3.007284549999999945e+04
-3.007706799999999930e+04
-3.007261920000000100e+04
-3.007957690000000002e+04
-3.007691540000000168e+04
-3.007997609999999986e+04
-3.007654290000000037e+04
-3.007797479999999996e+04
-3.007454249999999956e+04
-3.007559839999999895e+04
-3.007338639999999941e+04
-3.008000969999999870e+04
-3.007516540000000168e+04
-3.007941739999999845e+04
-3.007546849999999904e+04
-3.007517399999999907e+04
-3.007567480000000069e+04
-3.007480830000000060e+04
-3.007938609999999971e+04
-3.007528629999999976e+04
-3.007573849999999948e+04
-3.007381209999999919e+04
-3.007291229999999996e+04
-3.007493929999999818e+04
-3.008088450000000012e+04
-3.007588759999999820e+04
-3.007648930000000109e+04
-3.007113859999999841e+04
-3.007535199999999895e+04
-3.007401900000000023e+04
-3.007843639999999868e+04
-3.007517580000000089e+04
-3.007602500000000146e+04
-3.007580979999999909e+04
-3.007548519999999917e+04
-3.007538999999999942e+04
-3.007674109999999928e+04
-3.007633599999999933e+04
-3.007390539999999964e+04
-3.007912280000000101e+04
-3.007666600000000108e+04
-3.007584470000000147e+04
-3.007104680000000008e+04
-3.007389649999999892e+04
-3.007196759999999995e+04
-3.007644239999999991e+04
-3.007591949999999997e+04
-3.007717750000000160e+04
-3.007487819999999920e+04
-3.008121419999999853e+04
-3.007779119999999966e+04
-3.007778960000000006e+04
-3.007911950000000070e+04
-3.007885410000000047e+04
-3.007949689999999828e+04
-3.007622759999999835e+04
-3.007540959999999905e+04
-3.007376080000000002e+04
-3.007521419999999853e+04
-3.007284990000000107e+04
-3.007753190000000177e+04
-3.007265729999999894e+04
-3.007439879999999903e+04
-3.007029160000000047e+04
-3.007911000000000058e+04
-3.007311760000000140e+04
-3.007369840000000113e+04
-3.007827130000000034e+04
-3.007563999999999942e+04
-3.007842260000000169e+04
-3.007656669999999940e+04
-3.007638850000000093e+04
-3.007617669999999998e+04
-3.007278859999999986e+04
-3.007764789999999994e+04
-3.007457839999999851e+04
-3.007611650000000009e+04
-3.007931680000000051e+04
-3.007832419999999911e+04
-3.007894250000000102e+04
-3.007619879999999830e+04
-3.007632159999999931e+04
-3.007194169999999940e+04
-3.007879939999999988e+04
-3.007712440000000061e+04
-3.007669559999999910e+04
-3.007695839999999953e+04
-3.007906209999999919e+04
-3.007733539999999994e+04
-3.007659579999999914e+04
-3.008067669999999998e+04
-3.007738039999999819e+04
-3.007381799999999930e+04
-3.007604130000000077e+04
-3.007683589999999822e+04
-3.007343040000000110e+04
-3.007644090000000142e+04
-3.007640989999999874e+04
-3.007631520000000091e+04
-3.007652010000000155e+04
-3.007547660000000178e+04
-3.007896970000000147e+04
-3.007540450000000055e+04
-3.007451889999999912e+04
-3.007832129999999961e+04
-3.007708139999999912e+04
-3.007853289999999834e+04
-3.007337849999999889e+04
-3.007116719999999987e+04
-3.007365880000000107e+04
-3.007366089999999895e+04
-3.007302890000000116e+04
-3.007665550000000076e+04
-3.007681520000000091e+04
-3.007822360000000117e+04
-3.007506639999999970e+04
-3.007318490000000020e+04
-3.007365610000000015e+04
-3.007327309999999852e+04
-3.007949910000000091e+04
-3.007400869999999850e+04
-3.007908899999999994e+04
-3.007586119999999937e+04
-3.007741400000000067e+04
-3.007669859999999971e+04
-3.007926259999999820e+04
-3.007524559999999838e+04
-3.007142919999999867e+04
-3.008089219999999841e+04
-3.007673240000000078e+04
-3.007372920000000158e+04
-3.007152500000000146e+04
-3.007142109999999957e+04
-3.007415220000000045e+04
-3.007689089999999851e+04
-3.007565559999999823e+04
-3.008039010000000053e+04
-3.007491709999999875e+04
-3.007602709999999934e+04
-3.007521759999999995e+04
-3.007520000000000073e+04
-3.007691379999999845e+04
-3.007547539999999935e+04
-3.007618260000000009e+04
-3.007457140000000072e+04
-3.007651719999999841e+04
-3.007565460000000166e+04
-3.007371489999999903e+04
-3.007769519999999829e+04
-3.007701650000000154e+04
-3.007659319999999934e+04
-3.007417980000000171e+04
-3.007900489999999991e+04
-3.007654599999999846e+04
-3.007710269999999946e+04
-3.007768100000000049e+04
-3.007307920000000013e+04
-3.007412740000000122e+04
-3.007527419999999984e+04
-3.006999260000000140e+04
-3.007782830000000104e+04
-3.007531130000000121e+04
-3.007246640000000116e+04
-3.007939709999999832e+04
-3.007882600000000093e+04
-3.007039040000000023e+04
-3.007664489999999932e+04
-3.007657119999999850e+04
-3.007566909999999916e+04
-3.007293370000000141e+04
-3.007144959999999992e+04
-3.007639099999999962e+04
-3.007774290000000110e+04
-3.007489029999999912e+04
-3.007151929999999993e+04
-3.007752160000000003e+04
-3.007408929999999964e+04
-3.007373760000000038e+04
-3.007357400000000052e+04
-3.007822680000000037e+04
-3.007258539999999994e+04
-3.007376139999999941e+04
-3.007584760000000097e+04
-3.007683610000000044e+04
-3.007480029999999897e+04
-3.007400289999999950e+04
-3.007748990000000049e+04
-3.007666709999999875e+04
-3.008063989999999831e+04
-3.007989860000000044e+04
-3.007865850000000137e+04
-3.007471359999999913e+04
-3.007435180000000037e+04
-3.007530800000000090e+04
-3.007455990000000020e+04
-3.007243509999999878e+04
-3.007544589999999880e+04
-3.007573270000000048e+04
-3.007488820000000123e+04
-3.007720379999999932e+04
-3.007195709999999963e+04
-3.007624100000000180e+04
-3.007730570000000080e+04
-3.007264730000000054e+04
-3.007600600000000122e+04
-3.007729019999999946e+04
-3.007701410000000033e+04
-3.007516479999999865e+04
-3.007690480000000025e+04
-3.007810450000000128e+04
-3.007165339999999924e+04
-3.007909110000000146e+04
-3.007557979999999952e+04
-3.007398979999999938e+04
-3.007911290000000008e+04
-3.007528269999999975e+04
-3.007233810000000085e+04
-3.007542889999999898e+04
-3.007572529999999824e+04
-3.007697580000000016e+04
-3.007555919999999969e+04
-3.007498630000000048e+04
-3.007643300000000090e+04
-3.007455970000000161e+04
-3.007336179999999877e+04
-3.007249740000000020e+04
-3.007598960000000079e+04
-3.007613910000000033e+04
-3.007718560000000070e+04
-3.007367499999999927e+04
-3.007465120000000024e+04
-3.007406880000000092e+04
-3.007757979999999952e+04
-3.007795690000000104e+04
-3.007674260000000140e+04
-3.007466639999999825e+04
-3.007820890000000145e+04
-3.007972019999999975e+04
-3.007549000000000160e+04
-3.007640919999999824e+04
-3.007435719999999856e+04
-3.007734159999999974e+04
-3.007451080000000002e+04
-3.007251480000000083e+04
-3.007457630000000063e+04
-3.007470140000000174e+04
-3.007469949999999881e+04
-3.007455080000000089e+04
-3.007560880000000179e+04
-3.007304990000000180e+04
-3.007574380000000019e+04
-3.007601849999999831e+04
-3.007768649999999980e+04
-3.007913829999999871e+04
-3.007524740000000020e+04
-3.007394810000000143e+04
-3.007786430000000109e+04
-3.007256220000000030e+04
-3.008023660000000018e+04
-3.007257660000000033e+04
-3.007558980000000156e+04
-3.007725739999999860e+04
-3.007952209999999832e+04
-3.007736639999999898e+04
-3.007473939999999857e+04
-3.007722729999999865e+04
-3.007674409999999989e+04
-3.007795469999999841e+04
-3.007488620000000083e+04
-3.007807879999999932e+04
-3.007969320000000153e+04
-3.007585320000000138e+04
-3.007615100000000166e+04
-3.007569959999999992e+04
-3.007898280000000159e+04
-3.007585919999999896e+04
-3.007529409999999916e+04
-3.007828299999999945e+04
-3.007750690000000031e+04
-3.007862080000000060e+04
-3.007488629999999830e+04
-3.007586119999999937e+04
-3.007222569999999905e+04
-3.007454349999999977e+04
-3.007800479999999880e+04
-3.007968289999999979e+04
-3.007579460000000108e+04
-3.007495939999999973e+04
-3.007842580000000089e+04
-3.007913580000000002e+04
-3.007446759999999995e+04
-3.007632819999999992e+04
-3.007129439999999886e+04
-3.007125159999999960e+04
-3.007323199999999997e+04
-3.007333580000000075e+04
-3.007020799999999872e+04
-3.007725419999999940e+04
-3.007902969999999914e+04
-3.007476030000000173e+04
-3.007652980000000025e+04
-3.008157489999999962e+04
-3.007506420000000071e+04
-3.007912370000000010e+04
-3.007065179999999964e+04
-3.007503090000000157e+04
-3.007925909999999931e+04
-3.007307500000000073e+04
-3.007676060000000143e+04
-3.007406950000000143e+04
-3.007440220000000045e+04
-3.007471659999999974e+04
-3.007725539999999819e+04
-3.007746050000000105e+04
-3.007651510000000053e+04
-3.007874680000000080e+04
-3.007682730000000083e+04
-3.007718029999999999e+04
-3.007484170000000086e+04
-3.007470000000000073e+04
-3.008044680000000153e+04
-3.007810819999999876e+04
-3.007267900000000009e+04
-3.007677750000000015e+04
-3.007688399999999820e+04
-3.007710420000000158e+04
-3.007594810000000143e+04
-3.007453819999999905e+04
-3.007447769999999946e+04
-3.007080229999999938e+04
-3.007415369999999893e+04
-3.007812700000000041e+04
-3.007614099999999962e+04
-3.007673059999999896e+04
-3.007690989999999874e+04
-3.007477289999999994e+04
-3.007873890000000029e+04
-3.007572060000000056e+04
-3.007288200000000143e+04
-3.007582089999999880e+04
-3.007681320000000051e+04
-3.006906350000000020e+04
-3.007911179999999877e+04
-3.007184270000000106e+04
-3.007764189999999871e+04
-3.007392090000000098e+04
-3.007203080000000045e+04
-3.007186839999999938e+04
-3.007679680000000008e+04
-3.007590299999999843e+04
-3.007771960000000036e+04
-3.007737860000000001e+04
-3.007524160000000120e+04
-3.007755229999999938e+04
-3.007953410000000076e+04
-3.007747179999999935e+04
-3.007657300000000032e+04
-3.008042139999999927e+04
-3.007181639999999970e+04
-3.007927660000000105e+04
-3.007337210000000050e+04
-3.007758169999999882e+04
-3.007621909999999843e+04
-3.007276540000000023e+04
-3.007982270000000062e+04
-3.007622660000000178e+04
-3.007861170000000129e+04
-3.007683699999999953e+04
-3.007623960000000079e+04
-3.007752100000000064e+04
-3.007755229999999938e+04
-3.007816890000000058e+04
-3.007699079999999958e+04
-3.007859999999999854e+04
-3.007760229999999865e+04
-3.007712779999999839e+04
-3.007540799999999945e+04
-3.007793600000000151e+04
-3.007831659999999829e+04
-3.007261779999999999e+04
-3.008138430000000153e+04
-3.007553329999999914e+04
-3.007663100000000122e+04
-3.007461209999999846e+04
-3.007530540000000110e+04
-3.007902990000000136e+04
-3.007561650000000009e+04
-3.007282920000000013e+04
-3.007444060000000172e+04
-3.007293700000000172e+04
-3.007686560000000100e+04
-3.007943999999999869e+04
-3.007684089999999924e+04
-3.007665429999999833e+04
-3.007157770000000164e+04
-3.007833020000000033e+04
-3.007638599999999860e+04
-3.007505670000000100e+04
-3.007472850000000108e+04
-3.007496020000000135e+04
-3.007940260000000126e+04
-3.007637949999999910e+04
-3.007399269999999888e+04
-3.007594740000000093e+04
-3.007184159999999974e+04
-3.007636209999999846e+04
-3.007622969999999987e+04
-3.007760339999999997e+04
-3.007386730000000171e+04
-3.007736189999999988e+04
-3.008080280000000130e+04
-3.007802219999999943e+04
-3.007678589999999895e+04
-3.007216639999999825e+04
-3.007820060000000012e+04
-3.007746600000000035e+04
-3.007288850000000093e+04
-3.007613430000000153e+04
-3.007713019999999960e+04
-3.007439700000000084e+04
-3.007579339999999866e+04
-3.007851680000000124e+04
-3.007831079999999929e+04
-3.007737150000000111e+04
-3.007315539999999964e+04
-3.007557289999999921e+04
-3.007194900000000052e+04
-3.007159309999999823e+04
-3.007344889999999941e+04
-3.007785919999999896e+04
-3.007562549999999828e+04
-3.007544949999999881e+04
-3.007205359999999928e+04
-3.007223830000000089e+04
-3.007826599999999962e+04
-3.007719770000000062e+04
-3.007517350000000079e+04
-3.008000500000000102e+04
-3.007564939999999842e+04
-3.007679049999999916e+04
-3.007618609999999899e+04
-3.007798280000000159e+04
-3.007474169999999867e+04
-3.007633179999999993e+04
-3.007634979999999996e+04
-3.007595920000000115e+04
-3.007401520000000164e+04
-3.007808850000000166e+04
-3.007716149999999834e+04
-3.007779910000000018e+04
-3.007998180000000139e+04
-3.007405169999999998e+04
-3.007548870000000170e+04
-3.007318119999999908e+04
-3.007398359999999957e+04
-3.007053700000000026e+04
-3.007447290000000066e+04
-3.007205489999999918e+04
-3.007755069999999978e+04
-3.007772499999999854e+04
-3.007434630000000107e+04
-3.007579330000000118e+04
-3.007611969999999928e+04
-3.007868040000000110e+04
-3.007978580000000147e+04
-3.007392540000000008e+04
-3.007517269999999917e+04
-3.007812039999999979e+04
-3.007283550000000105e+04
-3.007441370000000097e+04
-3.007565529999999853e+04
-3.007396370000000024e+04
-3.007655080000000089e+04
-3.007016600000000108e+04
-3.007401889999999912e+04
-3.007735469999999987e+04
-3.007441419999999925e+04
-3.007840999999999985e+04
-3.007612289999999848e+04
-3.007854190000000017e+04
-3.007560199999999895e+04
-3.007651940000000104e+04
-3.007127079999999842e+04
-3.007482649999999921e+04
-3.007570369999999821e+04
-3.007371700000000055e+04
-3.007546759999999995e+04
-3.007854509999999937e+04
-3.007309330000000045e+04
-3.007390840000000026e+04
-3.007255889999999999e+04
-3.007416890000000058e+04
-3.008004859999999826e+04
-3.007395530000000144e+04
-3.007367450000000099e+04
-3.007570890000000145e+04
-3.007719659999999931e+04
-3.007693530000000101e+04
-3.007337289999999848e+04
-3.007419729999999981e+04
-3.007715799999999945e+04
-3.007712280000000101e+04
-3.007857779999999912e+04
-3.007436209999999846e+04
-3.007776090000000113e+04
-3.007588720000000103e+04
-3.007341430000000037e+04
-3.007667320000000109e+04
-3.007428680000000168e+04
-3.007716489999999976e+04
-3.007671800000000076e+04
-3.007254690000000119e+04
-3.007597160000000076e+04
-3.007729149999999936e+04
-3.007729520000000048e+04
-3.007712059999999838e+04
-3.007445520000000033e+04
-3.007682860000000073e+04
-3.007716330000000016e+04
-3.007630129999999917e+04
-3.007708099999999831e+04
-3.007104890000000159e+04
-3.007252430000000095e+04
-3.007799880000000121e+04
-3.007099850000000151e+04
-3.007807579999999871e+04
-3.007544989999999962e+04
-3.007381009999999878e+04
-3.007668760000000111e+04
-3.007285989999999947e+04
-3.008098589999999967e+04
-3.007737470000000030e+04
-3.007683870000000024e+04
-3.007826350000000093e+04
-3.007615880000000107e+04
-3.007417880000000150e+04
-3.007622720000000118e+04
-3.007784419999999955e+04
-3.007749980000000141e+04
-3.008194139999999970e+04
-3.007303510000000097e+04
-3.007206659999999829e+04
-3.007514510000000155e+04
-3.007791080000000147e+04
-3.007261089999999967e+04
-3.007725649999999951e+04
-3.007419780000000173e+04
-3.007671240000000034e+04
-3.007958669999999984e+04
-3.007692680000000109e+04
-3.007856699999999910e+04
-3.007330710000000181e+04
-3.007303859999999986e+04
-3.007690120000000024e+04
-3.008071229999999923e+04
-3.007712810000000172e+04
-3.007576450000000114e+04
-3.007350649999999951e+04
-3.007669640000000072e+04
-3.007955700000000070e+04
-3.007434869999999864e+04
-3.007095140000000174e+04
-3.007426050000000032e+04
-3.007812970000000132e+04
-3.007433520000000135e+04
-3.007790069999999832e+04
-3.007672290000000066e+04
-3.007849820000000182e+04
-3.007526949999999852e+04
-3.007498779999999897e+04
-3.007684059999999954e+04
-3.007600979999999981e+04
-3.007451109999999971e+04
-3.007160099999999875e+04
-3.007596919999999955e+04
-3.007610659999999916e+04
-3.007273949999999968e+04
-3.007920379999999932e+04
-3.007182849999999962e+04
-3.006849680000000080e+04
-3.007487299999999959e+04
-3.007829209999999875e+04
-3.007280600000000049e+04
-3.007724079999999958e+04
-3.007468149999999878e+04
-3.007649620000000141e+04
-3.007522599999999875e+04
-3.007256070000000182e+04
-3.007817380000000048e+04
-3.007899750000000131e+04
-3.007775019999999859e+04
-3.007606120000000010e+04
-3.007804290000000037e+04
-3.007260290000000168e+04
-3.008034430000000066e+04
-3.007340829999999914e+04
-3.007450849999999991e+04
-3.007592120000000068e+04
-3.007728940000000148e+04
-3.007841500000000087e+04
-3.007317050000000017e+04
-3.007742680000000109e+04
-3.007683980000000156e+04
-3.007738100000000122e+04
-3.007464909999999873e+04
-3.007630429999999978e+04
-3.007574710000000050e+04
-3.007503029999999853e+04
-3.007566760000000068e+04
-3.007864080000000104e+04
-3.007735389999999825e+04
-3.007835239999999976e+04
-3.007425769999999829e+04
-3.007597950000000128e+04
-3.007851369999999952e+04
-3.007441639999999825e+04
-3.007188839999999982e+04
-3.007411189999999988e+04
-3.007287619999999879e+04
-3.007356539999999950e+04
-3.007713539999999921e+04
-3.007507930000000124e+04
-3.007718590000000040e+04
-3.007411209999999846e+04
-3.007673359999999957e+04
-3.007507540000000154e+04
-3.007839069999999992e+04
-3.007334019999999873e+04
-3.007701589999999851e+04
-3.007564180000000124e+04
-3.007469559999999910e+04
-3.007498689999999988e+04
-3.007283529999999882e+04
