-4.877516180275204505e+01 6.077576282112006290e+00 -3.487205302272002871e+00 6.075399499776005463e+00 -4.500497479680004176e+01 -6.595650478080006263e-01 -3.487205302272002871e+00 -6.617418301440006756e-01 -5.017047928012804192e+01
-1.899024909926401961e+01 1.349605048320001277e+00 7.057128333312006951e+00 1.349605048320001277e+00 -4.695319498752004250e+01 -1.530277982208001264e+00 7.057128333312006951e+00 -1.530277982208001264e+00 -5.629159120896005675e+01
-2.793900128256002446e+01 -4.791097921536003668e+00 -1.214862221721601188e+01 -4.791097921536003668e+00 -7.414773671116807918e+01 -3.077970223104002478e+00 -1.214862221721601188e+01 -3.077970223104002478e+00 -3.804797845094403641e+01
-3.876849340416003287e+01 -8.263065747456007415e+00 6.528170225664005955e+00 -8.263065747456007415e+00 -6.950248320614406339e+01 3.158511169536002861e+00 6.530347008000005893e+00 3.158511169536002861e+00 -4.962410691379204764e+01
-8.681007955968008005e+00 -5.309172117504004973e+00 1.316300278579201333e+01 -5.309172117504004973e+00 -5.135029530624004934e+01 1.153041603379200986e+01 1.316300278579201333e+01 1.153041603379200986e+01 -6.451982843904005449e+01
-4.294356192460804067e+01 -1.784961515520001640e+01 5.890373001216005378e+00 -1.784961515520001640e+01 -4.587133416652804385e+01 1.813042007654401644e+01 5.890373001216005378e+00 1.813042007654401644e+01 -2.808919926374402820e+01
-5.328545480294405223e+01 -2.176782336000002063e-03 -9.490770984960009926e+00 -2.176782336000002063e-03 -5.669429594112005333e+01 -9.312274833408007879e+00 -9.490770984960009926e+00 -9.312274833408007879e+00 -6.248236017254406249e+01
-2.236208493772801731e+01 3.297825239040003353e+00 -6.229951045632005524e+00 3.297825239040003353e+00 -4.432146514329604514e+01 -2.153055408537602133e+01 -6.229951045632005524e+00 -2.153055408537602133e+01 -3.654164507443203291e+01
-3.405793642905603491e+01 -1.870291383091202064e+01 7.853830668288007466e+00 -1.870291383091202064e+01 -6.966791866368006936e+01 -2.646967320576002702e+00 7.851653885952007528e+00 -2.646967320576002702e+00 -6.685769266790406107e+01
-2.615403976704002531e+01 1.522876922265601252e+01 3.400134008832003119e+00 1.522876922265601252e+01 -3.023986021171202765e+01 3.665701453824003142e+00 3.400134008832003119e+00 3.665701453824003142e+00 -3.386855636582403406e+01
9.066298429440008633e+00 -7.044067639296007322e+00 -2.418405175296002074e+00 -7.044067639296007322e+00 -3.175925428224003255e+01 -1.510686941184001419e+01 -2.420581957632002013e+00 -1.510686941184001419e+01 -3.453465176064003117e+01
-1.960410171801601820e+01 -2.135423471616002100e+00 4.904290603008004013e+00 -2.135423471616002100e+00 -2.434513364582402062e+01 -1.552263483801601573e+01 4.904290603008004013e+00 -1.552263483801601573e+01 -1.943431269580801768e+01
-1.832633048678401622e+01 -1.571636846592001424e+00 7.596970352640007862e-01 -1.571636846592001424e+00 -4.623921038131204142e+01 6.615241519104006152e+00 7.596970352640007862e-01 6.613064736768006213e+00 -3.072092910796802911e+01
-3.641539169894403472e+01 6.136349405184005512e+00 -1.144987508736001125e+01 6.136349405184005512e+00 -1.852224089702401599e+01 -8.432854769664007932e+00 -1.144987508736001125e+01 -8.432854769664007932e+00 -2.437560859852802153e+01
-2.132811332812801908e+01 -7.623091740672006900e+00 -2.100594954240002199e+00 -7.623091740672006900e+00 -5.855979840307205109e+01 -1.037019104870400987e+01 -2.100594954240002199e+00 -1.037019104870400987e+01 -1.981307282227201938e+01
-4.251473580441604128e+01 1.130185388851201012e+01 -2.070773036236802156e+01 1.130185388851201012e+01 -1.564235786649601323e+01 -7.444595589120007739e-01 -2.070773036236802156e+01 -7.422827765760007246e-01 -1.707903420825601870e+01
-2.211828531609602067e+01 2.436037112217602285e+01 -1.328925616128001330e+01 2.436037112217602285e+01 -1.788662045491201624e+01 -2.892943724544002837e+00 -1.328925616128001330e+01 -2.892943724544002837e+00 -1.352217187123201114e+01
-2.824810437427202814e+01 -9.425467514880009334e-01 1.676122398720001572e+00 -9.425467514880009334e-01 -3.837449580134403249e+01 -1.072282978713600876e+01 1.676122398720001572e+00 -1.072282978713600876e+01 -4.272588369100803618e+01
-3.229038917222403171e+01 5.707523284992006118e+00 6.162470793216006548e+00 5.707523284992006118e+00 -1.428839925350401430e+01 1.508074802380801493e+01 6.162470793216006548e+00 1.508074802380801493e+01 -4.313729555251204317e+01
-4.178116015718403986e+01 4.340503977984004003e+00 1.295185489920001265e+00 4.340503977984004003e+00 -2.591677049241602404e+01 3.852904734720003499e-01 1.295185489920001265e+00 3.852904734720003499e-01 -5.696204016844805551e+01
-4.064052621312003311e+01 -1.615172493312001523e+00 -5.420188016640005157e-01 -1.615172493312001523e+00 -1.844169995059201739e+01 1.060310675865601127e+01 -5.420188016640005157e-01 1.060310675865601127e+01 -8.626588397568008659e+00
-3.865965428736004128e+01 -5.121968836608004949e+00 1.317170991513601308e+01 -5.121968836608004949e+00 3.317416280064002798e+00 9.018409218048008213e+00 1.317170991513601308e+01 9.018409218048008213e+00 -3.461954627174403498e+01
-1.260139294310401148e+01 1.734460165324801650e+01 -1.789315080192001517e+01 1.734460165324801650e+01 -3.202482172723203036e+01 -5.104554577920004554e+00 -1.789315080192001517e+01 -5.104554577920004554e+00 -3.171789541785603106e+01
-2.000680645017601833e+01 2.444526563328002666e+00 -7.383645683712006580e+00 2.444526563328002666e+00 -2.429724443443202375e+01 -6.593473695744005880e+00 -7.383645683712006580e+00 -6.593473695744005880e+00 -3.697047119462403231e+01
-3.385114210713603455e+01 4.569066123264004631e+00 -2.072296783872002113e+00 4.569066123264004631e+00 -4.460444684697603890e+01 -1.904902222233601705e+01 -2.072296783872002113e+00 -1.904902222233601705e+01 -6.025333506048005461e+01
-3.615635460096003584e+01 -1.214209187020801117e+01 -2.436907825152002260e+01 -1.214209187020801117e+01 -3.097125907660802824e+01 -7.063658680320006766e+00 -2.436907825152002260e+01 -7.063658680320006766e+00 -2.756241793843202359e+01
-1.999156897382401610e+01 -5.137206312960005405e+00 -7.583909658624007122e+00 -5.139383095296004456e+00 -1.683088102195201685e+01 -4.259963031552003621e+00 -7.583909658624007122e+00 -4.259963031552003621e+00 -3.109533566976002916e+01
-4.524006728908803865e+01 2.052270386380801881e+01 -9.745454518272008926e+00 2.052270386380801881e+01 -2.987416077926402735e+01 -5.853367701504005538e+00 -9.745454518272008926e+00 -5.853367701504005538e+00 -8.836212536524807604e+01
-3.282805440921602980e+01 -8.898686189568007165e+00 5.979621076992005513e+00 -8.898686189568007165e+00 -2.452362979737602444e+01 -4.305675460608004101e+00 5.979621076992005513e+00 -4.305675460608004101e+00 -4.213597567795203958e+01
-4.119560570880003780e+01 9.098950164480008596e-01 -4.627839246336003853e+00 9.098950164480008596e-01 -2.513748241612802303e+01 -8.879095148544008609e+00 -4.627839246336003853e+00 -8.879095148544008609e+00 -3.485028519936003022e+01
-5.088446388633605011e+01 2.786281390080002751e+01 3.778894135296003487e+00 2.786063711846402668e+01 -3.840061718937603530e+01 -1.686135597465601776e+01 3.778894135296003487e+00 -1.686135597465601776e+01 -6.738447399321606213e+01
-3.594085314969603928e+01 5.683578679296005021e+00 -4.939119120384004802e+00 5.683578679296005021e+00 -2.811967421644802911e+01 -1.088391168000000953e+01 -4.939119120384004802e+00 -1.088391168000000953e+01 -3.732093315072003747e+01
-2.694421175500802690e+01 -3.194428078080003175e+01 -1.175462461440001105e+00 -3.194428078080003175e+01 -2.842877730816002924e+01 -2.816756342784002776e+00 -1.175462461440001105e+00 -2.816756342784002776e+00 -4.130226804326404277e+01
-5.455669568716804463e+01 1.597758234624001350e+00 1.673945616384001411e+01 1.597758234624001350e+00 -3.782812343500803820e+01 -1.140198587596800905e+01 1.673945616384001411e+01 -1.140198587596800905e+01 -3.576235699814402835e+01
-1.804552556544001618e+01 -4.268670160896004262e+00 -1.026570549657600928e+01 -4.268670160896004262e+00 -4.020952331059203289e+01 2.311742840832001988e+00 -1.026570549657600928e+01 2.311742840832001988e+00 -4.180728154521604267e+01
-1.062922814668801053e+01 2.356366878720002234e+01 9.649676095488009864e+00 2.356149200486402151e+01 -2.813708847513602507e+01 4.216427384832003966e+00 9.649676095488009864e+00 4.216427384832003966e+00 5.513789657088005391e+00
-5.249528281497604354e+01 1.455178991616001305e+01 7.531666882560007492e-01 1.454961313382401400e+01 -2.326544960716801924e+01 -6.451982843904006337e+00 7.531666882560007492e-01 -6.451982843904006337e+00 -3.880114513920003816e+01
-4.772159915212805004e+01 6.739318112256006188e+00 -1.523747635200001405e+01 6.739318112256006188e+00 -4.337674160947204172e+01 -8.885625495552007536e+00 -1.523747635200001405e+01 -8.885625495552007536e+00 -5.455016534016004925e+01
-5.745399297638405756e+01 1.747956215808001801e+01 -6.758909153280006521e+00 1.747956215808001801e+01 -3.879896835686403733e+01 1.947567156019201917e+01 -6.761085935616005571e+00 1.947567156019201917e+01 -3.155681352499202674e+01
-3.931268898816003343e+01 -1.218345073459201267e+01 1.671333477580801485e+01 -1.218345073459201267e+01 -5.347701164851204680e+01 -1.110158991360001046e+01 1.671333477580801485e+01 -1.110158991360001046e+01 -3.825912633753603842e+01
-3.244711750041603437e+01 1.033971609600000896e+01 2.755806437376002727e+00 1.033971609600000896e+01 3.678762147840003438e-01 1.596234486988801571e+01 2.755806437376002727e+00 1.596452165222401476e+01 -3.508537769164803422e+01
-8.495981457408007032e+00 -1.374855723417601361e+01 -4.632192811008004618e+00 -1.374855723417601361e+01 -3.438227699712003016e+01 -5.844660572160004897e+00 -4.632192811008004618e+00 -5.844660572160004897e+00 -2.249486866022402154e+01
-3.593649958502403052e+01 -1.528536556339201269e+01 2.231201894400002050e+00 -1.528536556339201269e+01 -2.771261591961602377e+01 7.470716977152007665e+00 2.231201894400002050e+00 7.470716977152007665e+00 -3.648722551603203357e+01
-1.091438663270401044e+01 -2.503299686400002333e+00 9.144662593536008188e+00 -2.505476468736002271e+00 -2.168728241356802044e+01 -6.443275714560006140e-01 9.146839375872009015e+00 -6.443275714560006140e-01 -2.130416872243202064e+01
-4.000272898867203963e+01 -1.235759332147201128e+01 4.941295902720004740e+00 -1.235759332147201128e+01 -2.827204897996802657e+01 -3.239052115968002798e+00 4.941295902720004740e+00 -3.239052115968002798e+00 -4.400583170457604609e+01
-4.802199511449604330e+01 6.695782465536006534e+00 -4.455873441792004286e+00 6.697959247872005584e+00 -1.701590752051201605e+01 3.147627257856003169e+00 -4.455873441792004286e+00 3.147627257856003169e+00 -6.300478793318406190e+01
-3.383590463078403587e+01 1.258833224908801185e+01 4.821572874240004580e+00 1.258833224908801185e+01 9.338396221440009581e-01 4.754092621824004716e+00 4.821572874240004580e+00 4.754092621824004716e+00 -2.026366676582401638e+01
-3.558821441126403329e+01 -1.656531357696001461e+00 -9.301390921728009076e+00 -1.656531357696001461e+00 -4.675728457728003917e+01 -1.665020808806401575e+01 -9.301390921728009076e+00 -1.665020808806401575e+01 -1.565977212518401451e+01
-3.046842235699202917e+01 7.838593191936007010e+00 -9.841232941056007988e+00 7.836416409600007071e+00 -2.762772140851202707e+01 -1.487830726656001445e+01 -9.839056158720008938e+00 -1.487830726656001445e+01 -1.863108001382401824e+01
-4.185952432128004119e+01 -1.166319975628801053e+01 5.563855650816005749e+00 -1.166319975628801053e+01 -3.584289794457603762e+01 3.979158110208003585e+00 5.563855650816005749e+00 3.979158110208003585e+00 -3.372924229632003090e+01
-2.145654348595201810e+01 4.294791548928003522e+00 2.190060708249602328e+01 4.294791548928003522e+00 -3.337007321088002954e+01 -1.057916215296000884e+00 2.190060708249602328e+01 -1.057916215296000884e+00 -3.655035220377603622e+01
-2.958247194624002763e+00 1.057916215296000884e+00 -6.375795462144006720e+00 1.057916215296000884e+00 -1.733807130624001758e+01 4.954356596736004370e+00 -6.375795462144006720e+00 4.954356596736004370e+00 -8.308778176512008784e+00
-5.001810451660804091e+01 1.757751736320001612e+01 -9.011878871040007732e-01 1.757751736320001612e+01 -3.194645756313602902e+01 1.004802726297601012e+01 -9.033646694400008226e-01 1.004802726297601012e+01 -3.425820040396802568e+01
-5.940003638476805747e+01 8.395849469952008093e+00 9.773752688640009012e+00 8.395849469952008093e+00 -3.034652254617602907e+01 -6.284370604032005758e+00 9.773752688640009012e+00 -6.284370604032005758e+00 -4.557093820416003638e+01
-7.346640384000006740e+00 1.968028909977601870e+01 2.631729844224002690e+00 1.968028909977601870e+01 -1.187870120755201064e+01 7.161613885440006655e+00 2.631729844224002690e+00 7.161613885440006655e+00 -2.139341679820801900e+01
-4.268017126195204014e+01 1.889229389414401439e+01 -1.357441464729601321e+01 1.889229389414401439e+01 -5.414746060800005267e+01 -1.144552152268800960e+01 -1.357659142963201404e+01 -1.144552152268800960e+01 -1.355047004160001123e+01
-9.208442315980808246e+01 -1.764499761561601687e+01 -1.828497162240001472e-01 -1.764499761561601687e+01 -6.063862553395205879e+01 2.921241894912002923e+00 -1.828497162240001472e-01 2.921241894912002923e+00 -5.700339903283204990e+01
-5.067984634675205058e+01 -6.299608080384005326e+00 1.375291079884801171e+01 -6.299608080384005326e+00 -4.644382792089604806e+01 -5.167681265664004542e+00 1.375291079884801171e+01 -5.167681265664004542e+00 -4.864237808025605148e+01
-3.263867434598402895e+01 -2.786281390080002640e-01 1.513734436454401511e+01 -2.786281390080002640e-01 -1.565106499584001476e+01 1.272111597158401253e+01 1.513734436454401511e+01 1.272111597158401253e+01 -2.410351080652802125e+01
-3.305008620748802883e+01 3.197693251584003082e+00 -1.191570650726401048e+01 3.197693251584003082e+00 -3.965879737958403695e+01 -1.025046802022400882e+01 -1.191570650726401048e+01 -1.025046802022400882e+01 -3.359210500915202857e+01
-6.109574982451206182e+01 -6.460689973248006091e+00 1.285825325875201131e+01 -6.460689973248006091e+00 -3.657429680947203821e+01 1.932982714368001842e+00 1.285825325875201131e+01 1.932982714368001842e+00 -4.614778552320004223e+01
-2.074473566208002140e+01 -5.505082527744004750e+00 -2.248616153088002179e+01 -5.505082527744004750e+00 -3.621077415936003518e+01 8.974873571328007671e+00 -2.248616153088002179e+01 8.974873571328007671e+00 -9.595256537088008741e+00
-4.381209807667203648e+01 1.754486562816001571e+00 -3.454553567232003353e+00 1.754486562816001571e+00 -1.982395673395201996e+01 -1.668285982310401394e+01 -3.454553567232003353e+00 -1.668285982310401394e+01 -3.165259194777603113e+01
-2.037032910028801780e+01 4.070582968320003658e+00 -1.031794827264000958e+00 4.070582968320003658e+00 -6.094990540800005796e+00 -6.839450099712006015e+00 -1.031794827264000958e+00 -6.839450099712006015e+00 -1.451260783411201416e+01
-4.422350993817604348e+01 -1.359618247065601260e+01 8.750664990720007808e+00 -1.359618247065601260e+01 -1.800852026572801989e+01 -8.302247829504008081e+00 8.750664990720007808e+00 -8.302247829504008081e+00 -1.834374474547201928e+01
-3.948683157504003560e+01 1.568153994854401567e+01 7.525136535552007011e+00 1.568153994854401567e+01 -4.401236205158404147e+01 -1.228793628672001148e+01 7.525136535552007011e+00 -1.228793628672001148e+01 -1.078813325721601046e+01
-7.222563790848007592e+00 -4.960886943744005073e+00 9.956602404864009159e+00 -4.960886943744005073e+00 -3.313933428326402719e+01 2.232943320268801912e+01 9.956602404864009159e+00 2.232943320268801912e+01 -5.762160521625605725e+01
-3.065997920256003084e+01 8.128105242624007687e+00 8.959636094976007215e+00 8.128105242624007687e+00 -1.622138196787201636e+01 -3.561868936396803065e+01 8.959636094976007215e+00 -3.561868936396803065e+01 -4.522700659507204080e+01
-1.674816329318401742e+01 9.706272436224010036e+00 4.658314199040003878e+00 9.704095653888009210e+00 -2.199203194060801891e+01 -2.546835333120002431e+00 4.658314199040003878e+00 -2.546835333120002431e+00 -5.310260508672004676e+01
-3.565569466368003049e+01 -1.134103597056001078e+01 -1.061399067033601007e+01 -1.134103597056001078e+01 -5.291757858816004578e+00 -8.704952561664008215e+00 -1.061399067033601007e+01 -8.707129344000009041e+00 -3.974151510835203283e+01
-2.042474865868802070e+01 2.259500064768002137e+00 -4.612601769984004285e+00 2.259500064768002137e+00 -1.517217288192001412e+00 -4.664844546048004581e+00 -4.612601769984004285e+00 -4.664844546048004581e+00 -5.380352899891204999e+01
-3.415371485184003575e+00 -6.491164925952006115e+00 1.632586752000001473e+00 -6.491164925952006115e+00 -4.118254501478403284e+01 1.397494259712001430e+01 1.632586752000001473e+00 1.397494259712001430e+01 -2.828946323865602608e+01
-8.573257230336008661e+01 -8.641825873920007339e+00 5.435425492992004948e+00 -8.641825873920007339e+00 -6.613064736768006924e+01 -1.216821325824001265e+00 5.435425492992004948e+00 -1.216821325824001265e+00 -5.705564180889605552e+01
-1.236630045081601281e+01 -6.913460699136006582e+00 9.804227641344009925e+00 -6.913460699136006582e+00 -1.339156493107201307e+01 1.176115496140801042e+01 9.804227641344009925e+00 1.176115496140801042e+01 -6.893869658112006249e+00
-1.110376669593600951e+01 -4.819396091904003754e+00 -7.074542592000006014e-01 -4.819396091904003754e+00 -2.732732544614402315e+01 -4.007456280576003671e+00 -7.074542592000006014e-01 -4.007456280576003671e+00 -2.141083105689601851e+01
-5.429765858918405286e+01 -9.127248334848008682e+00 -1.087738133299200882e+01 -9.127248334848008682e+00 -2.300641250918402037e+01 -4.512469782528004458e+00 -1.087738133299200882e+01 -4.512469782528004458e+00 -6.193598780620805400e+01
-1.612778032742401635e+01 -4.579950034944004322e+00 -9.662736789504009494e+00 -4.579950034944004322e+00 -3.770840040652803538e+01 -5.942615777280004785e+00 -9.662736789504009494e+00 -5.942615777280004785e+00 -2.169381276057601937e+01
-2.688979219660802400e+01 2.184836430643202121e+01 2.520713945088002284e+00 2.185054108876802204e+01 -5.032720760832005169e+01 -3.454553567232003353e+00 2.520713945088002284e+00 -3.454553567232003353e+00 -1.479558953779201325e+01
-4.184211006259203458e+01 7.727577292800007491e+00 -1.389222486835201309e+01 7.727577292800007491e+00 -2.185489465344002014e+01 -5.267813253120004369e+00 -1.389222486835201309e+01 -5.267813253120004369e+00 -3.175707749990402817e+01
-1.257091799040001057e+01 9.423290732544009174e+00 -5.737998237696005255e+00 9.423290732544009174e+00 -1.954097503027201910e+01 3.134566563840003095e+00 -5.737998237696005255e+00 3.134566563840003095e+00 -3.333959825817603218e+01
-4.210332394291204139e+01 -1.193312076595201177e+01 -3.976981327872003646e+00 -1.193312076595201177e+01 -1.459314878054401277e+01 1.602111799296001493e+01 -3.976981327872003646e+00 1.602111799296001493e+01 -3.600180305510403400e+01
-4.834198211788804400e+01 7.856007450624006516e+00 1.264710537216001240e+00 7.856007450624006516e+00 -3.099955724697602832e+01 -3.437139308544003402e+00 1.264710537216001240e+00 -3.437139308544003402e+00 -4.617390691123204505e+01
-2.817627055718402929e+01 -1.639117099008001510e+00 1.422744934809601425e+01 -1.639117099008001510e+00 -6.861000244838406559e+01 -1.325442764390401251e+01 1.422744934809601425e+01 -1.325442764390401251e+01 -4.279118716108803966e+01
-2.830905427968002641e+01 -2.612138803200002649e-02 1.396841225011201360e+01 -2.612138803200002649e-02 -1.436676341760001385e+01 -2.344394575872002395e+00 1.396841225011201360e+01 -2.344394575872002395e+00 -4.502021227315204044e+01
-1.637811029606401547e+01 -5.483314704384005367e+00 -7.159437103104006717e+00 -5.483314704384005367e+00 -1.708774133760001490e+01 -6.428038238208006128e+00 -7.159437103104006717e+00 -6.428038238208006128e+00 -4.728406590259204734e+01
7.050597986304007136e+00 7.636152434688006529e+00 6.689252118528006719e+00 7.636152434688006529e+00 -2.242085806080001964e-01 1.197665641267201053e+01 6.689252118528006719e+00 1.197665641267201053e+01 -1.157830524518401027e+01
-3.720338690457602837e+01 4.775860445184004988e+00 -3.006136406016002738e+00 4.773683662848005049e+00 -7.822267324416007739e+01 1.538985111552001328e+01 -3.006136406016002738e+00 1.538985111552001328e+01 -5.884495688908805988e+01
-5.249963637964805230e+01 1.796716140134401485e+01 7.710163034112007097e+00 1.796716140134401485e+01 -2.111696544153601707e+01 8.498158239744007858e+00 7.710163034112007097e+00 8.498158239744007858e+00 -4.302627965337603655e+01
-4.918657366425605204e+01 1.885093502976001645e+01 -1.857666045542401889e+01 1.885093502976001645e+01 -4.391223006412803898e+01 1.948873225420801703e+01 -1.857666045542401889e+01 1.948873225420801703e+01 -1.877039408332801784e+01
-2.490238992384002614e+01 -1.846129099161601772e+01 -1.579037906534401436e+01 -1.846129099161601772e+01 -1.269064101888001117e+00 7.792880762880006529e+00 -1.579037906534401436e+01 7.792880762880006529e+00 -1.499367673036801385e+01
-3.223814639616002786e+00 -1.589268783513601591e+01 -1.692448266240001686e+01 -1.589268783513601591e+01 -3.874019523379203633e+01 -2.236208493772801731e+01 -1.692448266240001686e+01 -2.236208493772801731e+01 -6.326382503116805367e+01
-4.367278400716804043e+01 5.539911045120004651e+00 -4.266493378560003991e-01 5.539911045120004651e+00 -1.823055206400001893e+01 5.043604672512004505e+00 -4.266493378560003991e-01 5.043604672512004505e+00 -6.347714970009605651e+01
-5.313961038643204660e+01 1.765152796262401580e+01 8.576522403840007858e-01 1.765152796262401580e+01 -3.455206601932803778e+01 3.674408583168003339e+00 8.576522403840007858e-01 3.674408583168003339e+00 -5.471342401536005440e+01
-2.954982021120002855e+01 1.102757931417601078e+01 -2.200944619929602197e+01 1.102757931417601078e+01 -3.607581365452803368e+01 1.552045805568001313e+00 -2.200944619929602197e+01 1.552045805568001313e+00 -1.889229389414401439e+01
-3.116063913984002909e+01 -5.535557480448005663e+00 2.152184695603202158e+01 -5.535557480448005663e+00 -5.001375095193604636e+01 -1.020910915584001044e+00 2.152184695603202158e+01 -1.020910915584001044e+00 -2.629335383654402492e+01
-3.445193403187203529e+01 1.366583950540801240e+01 -1.046379268915200811e+01 1.366583950540801240e+01 -4.378597668864004078e+01 2.995252494336003046e+00 -1.046379268915200811e+01 2.995252494336003046e+00 -3.323075914137603348e+01
-2.627376279552002813e+01 9.436351426560008804e+00 4.157654261760004299e-01 9.436351426560008804e+00 -2.772567661363202518e+01 2.109955118284802111e+01 4.157654261760004299e-01 2.109955118284802111e+01 -1.433628846489601294e+01
-2.107560657715201913e+01 -1.172850322636801224e+01 1.124090398310401007e+01 -1.172850322636801224e+01 -4.307416886476804052e+01 -6.432391802880006004e+00 1.124090398310401007e+01 -6.432391802880006004e+00 -2.986980721459202925e+01
-3.975892936704003944e+01 -8.060624990208006935e+00 1.696801830912001563e+01 -8.060624990208006935e+00 -3.709672457011203761e+01 3.559039119360003056e+00 1.697019509145601646e+01 3.561215901696003439e+00 -1.589704139980801401e+01
-5.198809253068804992e+01 -2.616492367872002234e+00 -2.046393074073601781e+01 -2.616492367872002234e+00 -7.086950251315207083e+01 1.133450562355201008e+01 -2.046393074073601781e+01 1.133450562355201008e+01 -6.458077834444806342e+01
-1.573813628928001584e+00 6.987471298560006261e-01 1.115383268966401076e+01 6.987471298560006261e-01 -1.311293679206401208e+01 -1.824361275801601678e+01 1.115383268966401076e+01 -1.824361275801601678e+01 -5.754324105216005592e+01
-3.984164709580803532e+01 3.461083914240003168e+00 -3.424078614528003328e+00 3.461083914240003168e+00 -3.529652557824003622e+01 -3.567746248704003253e+00 -3.424078614528003328e+00 -3.567746248704003253e+00 -1.255785729638401094e+01
-5.612397896908804995e+01 2.396637351936002247e+01 -9.795520512000009672e-02 2.396637351936002247e+01 -7.007715374284806842e+01 1.133015205888001198e+01 -9.795520512000009672e-02 1.133015205888001198e+01 -4.932588773376004809e+01
-1.960845528268801985e+01 -5.433248710656005009e+00 -4.745385492480004852e-01 -5.433248710656005009e+00 -7.589786970931207577e+01 -6.029687070720005648e-01 -4.745385492480004852e-01 -6.029687070720005648e-01 -4.699455385190404400e+01
-2.198985515827202164e+01 9.223026757632009520e+00 3.574276595712003513e+00 9.223026757632009520e+00 -5.045781454848004444e+01 -1.205937414144001130e+00 3.574276595712003513e+00 -1.205937414144001130e+00 -4.125437883187203880e+01
-2.988069112627202628e+01 -2.015700443136001940e+00 -3.852904734720003499e-01 -2.015700443136001940e+00 -4.595187511296004601e+01 3.151980822528003046e+00 -3.852904734720003499e-01 3.151980822528003046e+00 -2.262765238272002222e+01
-5.544264609792004528e+00 -2.174823231897601872e+01 -1.651960114790401590e+01 -2.174823231897601872e+01 -3.970015624396803844e+01 -6.186415398912005870e+00 -1.651960114790401590e+01 -6.186415398912005870e+00 8.646179438592007216e+00
-4.781302401024004212e+01 -5.441955840000005651e-01 2.368339181568002161e+00 -5.441955840000005651e-01 -1.615390171545601561e+01 -1.188523155456001179e+00 2.368339181568002161e+00 -1.190699937792001117e+00 -1.455832026316801375e+01
-1.508510158848001437e+00 -9.347103350784008668e+00 1.789315080192001695e+00 -9.347103350784008668e+00 -1.642599950745601589e+01 9.577842278400009457e-01 1.789315080192001695e+00 9.577842278400009457e-01 -3.734705453875203318e+01
-1.029400366694400937e+01 -1.804770234777601701e+01 1.395317477376001314e+00 -1.804770234777601701e+01 -4.854006931046404105e+01 1.110594347827201034e+01 1.395317477376001314e+00 1.110594347827201034e+01 -2.875964822323202696e+01
-3.898834842009603818e+01 9.236087451648009150e+00 1.690706840371201380e+01 9.236087451648009150e+00 -4.145899637145603833e+01 7.816825368576007627e+00 1.690706840371201380e+01 7.816825368576007627e+00 -3.324381983539203134e+01
-3.400134008832003474e+01 -1.242289679155201298e+01 -1.341986310144001315e+01 -1.242289679155201298e+01 -1.131056101785601165e+01 -4.832456785920005160e+00 -1.341986310144001315e+01 -4.832456785920005160e+00 -3.298913630208003411e+01
-5.707740963225605668e+01 -1.299539054592001142e+00 6.190768963584005746e+00 -1.299539054592001142e+00 -8.090446908211207244e+01 -5.788064231424005612e+00 6.190768963584005746e+00 -5.788064231424005612e+00 -6.432827159347205281e+01
-3.022244595302402814e+01 -1.039195887206400926e+01 -1.116689338368000994e+00 -1.039195887206400926e+01 -3.969580267929603679e+01 4.085820444672004115e+00 -1.116689338368000994e+00 4.085820444672004115e+00 -3.748201504358404179e+01
-7.421304018124806134e+01 4.941295902720004740e+00 8.162933760000007366e-01 4.941295902720004740e+00 -6.574535689420805795e+01 8.896509407232009892e+00 8.184701583360006749e-01 8.896509407232009892e+00 -4.158960331161604529e+01
-5.569515284889605766e+01 -1.108199887257601013e+01 6.401916850176005980e+00 -1.108199887257601013e+01 -1.941036809011201569e+01 6.630478995456006608e+00 6.401916850176005980e+00 6.630478995456006608e+00 -5.350095625420804879e+01
-3.777370387660803885e+01 5.931731865600005094e+00 -6.306138427392005141e+00 5.931731865600005094e+00 -4.581909139046403823e+01 4.347034324992003818e+00 -6.306138427392005141e+00 4.347034324992003818e+00 -3.964138312089603744e+01
-8.638343022182407083e+01 -1.653266184192001731e+01 -6.499872055296005868e+00 -1.653266184192001731e+01 -3.927350690611203277e+01 -3.946506375168003622e+00 -6.499872055296005868e+00 -3.946506375168003622e+00 -7.136798566809606825e+01
-3.456730349568002936e+01 -2.629553061888002752e+00 3.437139308544003402e+00 -2.629553061888002752e+00 -3.250589062348802827e+01 1.084037603328001031e+00 3.437139308544003402e+00 1.084037603328001031e+00 -2.346136001740801902e+01
-2.936044014796802770e+01 6.734964547584006311e+00 2.812402778112002455e+00 6.734964547584006311e+00 -2.940397579468802647e+01 1.073153691648000896e+00 2.812402778112002455e+00 1.073153691648000896e+00 -2.676353882112002580e+01
-4.499409088512004473e+01 1.308463862169601200e+01 2.129546159308802089e+01 1.308463862169601200e+01 -4.557311498649604431e+01 6.845980446720005830e+00 2.129546159308802089e+01 6.843803664384006780e+00 -3.404705251737603078e+01
-6.725169027072006145e+01 1.080554751590400997e+01 7.118078238720006112e+00 1.080554751590400997e+01 -3.665483775590403326e+01 1.202454562406401095e+01 7.118078238720006112e+00 1.202454562406401095e+01 -5.489192016691205112e+01
-3.495694753382403519e+01 8.071508901888007514e+00 3.920384987136003918e+00 8.071508901888007514e+00 -7.031877658214406779e+01 5.566032433152004799e+00 3.920384987136003918e+00 5.566032433152004799e+00 -4.133274299596804013e+01
-4.207720255488003858e+01 -9.958779187200009986e+00 2.139777036288001977e+00 -9.958779187200009986e+00 -4.056433883136003260e+01 8.345783476224008623e+00 2.139777036288001977e+00 8.345783476224008623e+00 -4.126961630822403748e+01
-1.065099597004800991e+01 -1.367236985241601310e+01 7.118078238720006112e+00 -1.367236985241601310e+01 -3.758867737804803255e+01 -1.343074701312001240e+00 7.118078238720006112e+00 -1.343074701312001240e+00 -4.697713959321604449e+01
-2.525067509760002338e+01 -1.508945515315201291e+01 -4.138063220736003522e+00 -1.508945515315201291e+01 -4.964805151948804252e+01 -3.685292494848003475e+00 -4.138063220736003522e+00 -3.685292494848003475e+00 -4.622397290496004274e+01
-7.072583487897605892e+01 5.822892748800005513e+00 3.508973125632003143e+00 5.822892748800005513e+00 -3.992871838924803995e+01 1.047032303616000970e+00 3.508973125632003143e+00 1.047032303616000970e+00 -6.608493493862405899e+01
-5.771303007436804933e+01 3.461083914240002946e-01 1.959104102400001726e-02 3.461083914240002946e-01 -6.098691070771205602e+01 1.834809831014401738e+01 1.959104102400001726e-02 1.834809831014401738e+01 -8.066937658982408266e+01
-2.261023812403202271e+01 3.230344986624003045e+00 1.275159092428801344e+01 3.230344986624003045e+00 -4.064270299545604104e+01 -9.429821079552008101e+00 1.275376770662401071e+01 -9.429821079552008101e+00 -3.165259194777603113e+01