-1.014395027140000025e+03
-1.013711736900000005e+03
-1.017238960130000009e+03
-1.016750515139999948e+03
-1.017823377469999969e+03
-1.020501261419999992e+03
-1.015608372600000052e+03
-1.014017086299999960e+03
-1.013967382160000057e+03
-1.016685140400000023e+03
-1.017747515679999992e+03
-1.016841551090000053e+03
-1.015309571979999987e+03
-1.016795048540000039e+03
-1.013585535739999955e+03
-1.016023539959999994e+03
-1.016661580719999961e+03
-1.018703450790000034e+03
-1.018409965960000022e+03
-1.019220826070000044e+03
-1.020050179619999994e+03
-1.015109446000000048e+03
-1.017993261100000041e+03
-1.017375180480000040e+03
-1.017933382879999954e+03
-1.019266584159999979e+03
-1.015615582450000034e+03
-1.015277759779999997e+03
-1.012289831820000018e+03
-1.017677759609999953e+03
-1.017045222569999964e+03
-1.018529841219999980e+03
-1.017639386950000016e+03
-1.015433803649999959e+03
-1.018093866140000046e+03
-1.012505208390000007e+03
-1.015818000679999955e+03
-1.017382433040000024e+03
-1.011363021559999993e+03
-1.013864963819999957e+03
-1.015675431089999961e+03
-1.013848077239999952e+03
-1.012743570050000017e+03
-1.018710359020000055e+03
-1.019123059799999965e+03
-1.017969109279999998e+03
-1.017781274660000008e+03
-1.018987898380000047e+03
-1.013891595489999986e+03
-1.014161621330000003e+03
-1.017724696999999992e+03
-1.017069237280000038e+03
-1.014986834199999976e+03
-1.017456553149999991e+03
-1.020226171150000027e+03
-1.017387072590000002e+03
-1.018799189009999964e+03
-1.018221084710000014e+03
-1.015206448239999986e+03
-1.012603972099999964e+03
-1.017177533000000039e+03
-1.017082231210000032e+03
-1.017698182159999988e+03
-1.015643840769999997e+03
-1.018505405649999943e+03
-1.020100263530000007e+03
-1.015769781200000011e+03
-1.019720853899999952e+03
-1.019215967099999943e+03
-1.020881667089999951e+03
-1.015995392229999993e+03
-1.019387601760000052e+03
-1.019289319679999949e+03
-1.013613661510000043e+03
-1.015414021960000014e+03
-1.016704294920000052e+03
-1.015755632409999976e+03
-1.018438287080000009e+03
-1.017791337709999993e+03
-1.018838665770000034e+03
-1.018749871650000046e+03
-1.016012952179999957e+03
-1.015643286249999960e+03
-1.018924438470000041e+03
-1.012169291840000028e+03
-1.019208447220000039e+03
-1.014169340329999955e+03
-1.014690370069999972e+03
-1.020907946319999951e+03
-1.016282041270000036e+03
-1.017337517990000038e+03
-1.018690622979999944e+03
-1.012880060449999974e+03
-1.017482796529999973e+03
-1.019720211080000013e+03
-1.017637663230000044e+03
-1.017132728509999993e+03
-1.016798346479999964e+03
-1.015410081210000044e+03
-1.017301731580000023e+03
-1.018790226739999980e+03
-1.014712267610000026e+03
-1.013019480049999970e+03
-1.012332529359999967e+03
-1.018726375910000002e+03
-1.015579074310000010e+03
-1.017254850329999954e+03
-1.019317510770000013e+03
-1.017674428339999963e+03
-1.017127421759999947e+03
-1.015797642409999980e+03
-1.017096459099999947e+03
-1.018583422449999944e+03
-1.018247498990000054e+03
-1.014782636369999977e+03
-1.019721098790000042e+03
-1.015420518330000050e+03
-1.016703848030000017e+03
-1.018356419319999986e+03
-1.016555690229999982e+03
-1.015719580629999996e+03
-1.018834032180000008e+03
-1.015357803709999985e+03
-1.019376955560000056e+03
-1.019284288289999949e+03
-1.019876316689999953e+03
-1.014401016469999945e+03
-1.012441858099999990e+03
-1.012985665329999961e+03
-1.014802296080000019e+03
-1.016356392010000036e+03
-1.018531348439999988e+03
-1.017018264749999958e+03
-1.019903386469999987e+03
-1.014587583669999958e+03
-1.018484822559999998e+03
-1.017423153980000052e+03
-1.014100850280000031e+03
-1.019742934930000047e+03
-1.018992826120000018e+03
-1.017587684250000052e+03
-1.015259102940000048e+03
-1.018402253129999963e+03
-1.013274191670000050e+03
-1.016710987069999987e+03
-1.017464209439999991e+03
-1.016377916150000033e+03
-1.015521066499999961e+03
-1.016475144569999998e+03
-1.013338467209999976e+03
-1.018555420389999995e+03
-1.015781307760000004e+03
-1.015986368009999978e+03
-1.015753197509999950e+03
-1.019634912129999975e+03
-1.016939167050000037e+03
-1.019969866150000030e+03
-1.015174319729999979e+03
-1.018029337510000005e+03
-1.015274793420000037e+03
-1.017498222009999949e+03
-1.019926446289999944e+03
-1.012646851839999954e+03
-1.013049577519999957e+03
-1.014403660169999966e+03
-1.015316357219999986e+03
-1.020114114810000046e+03
-1.018835349560000054e+03
-1.016012239710000017e+03
-1.015740111090000028e+03
-1.015575807430000054e+03
-1.016856090989999984e+03
-1.012917998109999985e+03
-1.016926260840000054e+03
-1.017872987849999959e+03
-1.014969331399999987e+03
-1.017574763500000017e+03
-1.014615689100000054e+03
-1.020628426750000017e+03
-1.014246829589999948e+03
-1.014368052909999960e+03
-1.017645233999999959e+03
-1.016591296899999975e+03
-1.018369914470000026e+03
-1.016973260310000001e+03
-1.017978980249999950e+03
-1.014595441940000001e+03
-1.014741505889999985e+03
-1.016154834359999995e+03
-1.017025682550000056e+03
-1.012533743510000022e+03
-1.016569045790000018e+03
-1.019199830799999972e+03
-1.015936167660000024e+03
-1.016456672320000052e+03
-1.018412050030000046e+03
-1.018689403200000015e+03
-1.017124637740000026e+03
-1.017391498800000022e+03
-1.019572102760000007e+03
-1.013117651980000005e+03
-1.015442868200000021e+03
-1.017560090560000049e+03
-1.017581146139999987e+03
-1.015724470600000018e+03
-1.016184224630000017e+03
-1.015307650129999956e+03
-1.019719560829999978e+03
-1.017395719790000044e+03
-1.017063350580000019e+03
-1.012229441029999975e+03
-1.014287409089999983e+03
-1.019056317170000057e+03
-1.016548535089999973e+03
-1.015347073470000055e+03
-1.016009836859999950e+03
-1.018981097810000051e+03
-1.015578552540000032e+03
-1.020713528040000028e+03
-1.016728823349999971e+03
-1.015514098450000006e+03
-1.019950330349999945e+03
-1.012590558080000051e+03
-1.015732205580000027e+03
-1.018945823590000032e+03
-1.016562862249999966e+03
-1.017110712720000038e+03
-1.018488457580000045e+03
-1.016765290489999984e+03
-1.017466412160000004e+03
-1.018617747969999982e+03
-1.019688872749999973e+03
-1.017649061439999969e+03
-1.015498042970000029e+03
-1.018238370529999997e+03
-1.014687366610000026e+03
-1.016522580139999945e+03
-1.018719389879999994e+03
-1.013452056299999981e+03
-1.015506372349999992e+03
-1.017139445099999989e+03
-1.014046594789999972e+03
-1.015613865880000048e+03
-1.017258717690000026e+03
-1.016024117960000012e+03
-1.017174917980000032e+03
-1.019538230640000052e+03
-1.016694690619999960e+03
-1.015490672010000026e+03
-1.017235915269999964e+03
-1.014886286209999980e+03
-1.017878665220000016e+03
-1.017407500469999945e+03
-1.017746824159999960e+03
-1.016094844729999977e+03
-1.015845506460000024e+03
-1.018119666710000047e+03
-1.014916654509999944e+03
-1.015091772109999965e+03
-1.017753673990000038e+03
-1.018639558889999989e+03
-1.015739339630000018e+03
-1.014118521020000003e+03
-1.023197869060000016e+03
-1.018719286839999995e+03
-1.008312253319999968e+03
-1.017861013419999949e+03
-1.013311667550000038e+03
-1.019652108429999998e+03
-1.017031298559999982e+03
-1.016320742249999967e+03
-1.018295864550000033e+03
-1.014254745120000052e+03
-1.018812346919999982e+03
-1.016453670510000052e+03
-1.017306384699999967e+03
-1.019587047549999966e+03
-1.018759794019999958e+03
-1.017729167680000046e+03
-1.018342285919999995e+03
-1.018354748070000028e+03
-1.016842102859999954e+03
-1.013666477450000002e+03
-1.017886171699999977e+03
-1.016161931350000032e+03
-1.019206251909999992e+03
-1.015391384270000003e+03
-1.016249540280000019e+03
-1.018499501750000036e+03
-1.015851466459999983e+03
-1.016798243090000028e+03
-1.016423779139999965e+03
-1.015779574799999978e+03
-1.014567867210000031e+03
-1.014757451729999957e+03
-1.016677648930000032e+03
-1.017239002310000046e+03
-1.016711937560000024e+03
-1.019342018169999960e+03
-1.018273953069999948e+03
-1.020654848730000026e+03
-1.015825929530000053e+03
-1.016954498729999955e+03
-1.019472771039999998e+03
-1.017337974850000023e+03
-1.017631010719999949e+03
-1.016242668780000031e+03
-1.016177707879999957e+03
-1.017176449420000040e+03
-1.012821766720000028e+03
-1.015632859410000037e+03
-1.014685324189999960e+03
-1.017584447339999997e+03
-1.014613559470000041e+03
-1.018779057670000043e+03
-1.018022711029999982e+03
-1.013829988660000026e+03
-1.015966574880000053e+03
-1.017850224819999994e+03
-1.015698670559999982e+03
-1.017448603769999977e+03
-1.014729356499999994e+03
-1.018406755839999960e+03
-1.010449988879999978e+03
-1.019597743290000039e+03
-1.016205974559999959e+03
-1.018309127340000032e+03
-1.010231621890000042e+03
-1.020142908789999979e+03
-1.020135127630000056e+03
-1.014314219080000044e+03
-1.017527497430000039e+03
-1.016321963640000035e+03
-1.018220331180000017e+03
-1.015701441649999992e+03
-1.013357540680000056e+03
-1.016064416430000051e+03
-1.015277860840000017e+03
-1.018307549210000047e+03
-1.015022528729999976e+03
-1.017645435460000044e+03
-1.015553628580000009e+03
-1.017110790189999989e+03
-1.018911144809999996e+03
-1.012958265699999970e+03
-1.015972865370000022e+03
-1.020231760989999998e+03
-1.019565599239999983e+03
-1.015534485150000023e+03
-1.016366536569999994e+03
-1.017754204739999977e+03
-1.015463256350000051e+03
-1.016252824440000040e+03
-1.018045146219999992e+03
-1.016312615899999969e+03
-1.018086736989999963e+03
-1.017193413579999969e+03
-1.016303914960000043e+03
-1.018117597909999972e+03
-1.019783379449999984e+03
-1.018537918409999975e+03
-1.017550057219999985e+03
-1.016963837639999952e+03
-1.018952185869999994e+03
-1.014627092520000019e+03
-1.015691889970000034e+03
-1.011459349520000046e+03
-1.016494731620000039e+03
-1.016607373779999989e+03
-1.013574676469999986e+03
-1.014488566829999968e+03
-1.018106594719999975e+03
-1.017212640699999952e+03
-1.018016312050000010e+03
-1.016776139469999976e+03
-1.019884312010000031e+03
-1.015167899120000016e+03
-1.013678434260000017e+03
-1.018719804810000028e+03
-1.016447718180000038e+03
-1.017659813070000041e+03
-1.016962658970000007e+03
-1.019466163250000022e+03
-1.020398725280000008e+03
-1.014433560570000054e+03
-1.017776141250000023e+03
-1.015358792780000044e+03
-1.017640477059999967e+03
-1.018318671129999984e+03
-1.015771599710000032e+03
-1.017883878699999968e+03
-1.019756440669999961e+03
-1.014349409240000000e+03
-1.014215517859999977e+03
-1.018053778849999958e+03
-1.014964550120000013e+03
-1.014447236650000036e+03
-1.017381859690000056e+03
-1.017121205199999963e+03
-1.015976227799999947e+03
-1.017613125100000047e+03
-1.018290316490000009e+03
-1.015249043680000000e+03
-1.016700062760000037e+03
-1.017373589949999996e+03
-1.015911252399999967e+03
-1.019241226930000039e+03
-1.020588702580000017e+03
-1.016323466069999995e+03
-1.020694174180000005e+03
-1.017565251910000029e+03
-1.013115477260000034e+03
-1.018811516190000020e+03
-1.018560171200000013e+03
-1.016902574709999953e+03
-1.017027668850000055e+03
-1.019826160510000022e+03
-1.016978688720000036e+03
-1.015554376520000005e+03
-1.016370810710000001e+03
-1.017394069039999977e+03
-1.015767023079999944e+03
-1.018175041139999962e+03
-1.013636972379999975e+03
-1.018408574899999962e+03
-1.016676764280000043e+03
-1.019112821250000025e+03
-1.018673981740000045e+03
-1.018766394949999949e+03
-1.015814171409999972e+03
-1.017868649079999955e+03
-1.013389555719999976e+03
-1.015364987150000047e+03
-1.014001669350000043e+03
-1.014703583279999975e+03
-1.017366103159999966e+03
-1.016025644540000030e+03
-1.016885858159999998e+03
-1.013615461500000038e+03
-1.020232000439999979e+03
-1.015440248900000029e+03
-1.017377132309999979e+03
-1.019035696710000025e+03
-1.018481831850000049e+03
-1.016567351570000028e+03
-1.014864742660000047e+03
-1.018867520740000032e+03
-1.017130220519999966e+03
-1.019088595029999965e+03
-1.013498062160000018e+03
-1.016436666919999993e+03
-1.017751289369999995e+03
-1.016657456710000019e+03
-1.014102058860000056e+03
-1.016577005129999975e+03
-1.017427810180000051e+03
-1.018640196769999989e+03
-1.013605618110000023e+03
-1.018103677049999988e+03
-1.014186846500000001e+03
-1.015639687210000034e+03
-1.017404789860000051e+03
-1.016477316979999955e+03
-1.018189160600000037e+03
-1.018070314769999982e+03
-1.017626857989999962e+03
-1.018094573620000006e+03
-1.019699006400000030e+03
-1.018148895519999996e+03
-1.016614938700000039e+03
-1.018064870629999973e+03
-1.016002666780000027e+03
-1.014850215179999964e+03
-1.019971697279999944e+03
-1.020306341780000025e+03
-1.018249100170000020e+03
-1.016669697580000047e+03
-1.016798567980000030e+03
-1.019078232889999981e+03
-1.015919288059999985e+03
-1.016200907759999950e+03
-1.014095264540000016e+03
-1.016963189919999991e+03
-1.014225843449999957e+03
-1.016885724740000001e+03
-1.014654117329999963e+03
-1.020288595200000032e+03
-1.013712778520000029e+03
-1.017104988769999977e+03
-1.015869859710000014e+03
-1.018322422329999995e+03
-1.016182640149999997e+03
-1.018948563250000007e+03
-1.018314223370000036e+03
-1.015439935020000007e+03
-1.015587308000000007e+03
-1.017625497289999998e+03
-1.012150809330000016e+03
-1.021741108000000054e+03
-1.018786483249999947e+03
-1.014683437509999976e+03
-1.015435680179999963e+03
-1.016370986919999950e+03
-1.015815996929999983e+03
-1.016201526690000037e+03
-1.017463641570000050e+03
-1.015984076179999988e+03
-1.017193908129999954e+03
-1.018981730729999981e+03
-1.019185509079999974e+03
-1.014508642920000057e+03
-1.015288866249999955e+03
-1.015388202770000021e+03
-1.015743910320000055e+03
-1.018472218590000011e+03
-1.016208079290000001e+03
-1.019965513180000016e+03
-1.019563706280000019e+03
-1.019154855709999993e+03
-1.017153899799999976e+03
-1.020195647209999947e+03
-1.016565168330000006e+03
-1.015032374920000052e+03
-1.018709524740000006e+03
-1.017319347440000001e+03
-1.015266051479999987e+03
-1.015787834589999989e+03
-1.015846880820000024e+03
-1.018455102000000011e+03
-1.016280672589999995e+03
-1.014902003229999991e+03
-1.016928511970000045e+03
-1.017343615689999979e+03
-1.016438786810000011e+03
-1.019319037409999964e+03
-1.018562371439999993e+03
-1.019522620899999993e+03
-1.019330935169999975e+03
-1.014664667280000003e+03
-1.020092925850000029e+03
-1.010148013330000026e+03
-1.017040321560000052e+03
-1.019252469750000046e+03
-1.015460177140000042e+03
-1.014556183099999998e+03
-1.017965343400000052e+03
-1.017636591339999995e+03
-1.011887846920000015e+03
-1.017387438399999951e+03
-1.016916721639999992e+03
-1.019018568169999980e+03
-1.016594793190000019e+03
-1.012013475309999990e+03
-1.015945087560000047e+03
-1.014531112040000039e+03
-1.018613406810000015e+03
-1.013998712970000042e+03
-1.016382715309999980e+03
-1.018039925029999949e+03
-1.015421954509999978e+03
-1.015448440490000053e+03
-1.018670171070000038e+03
-1.017924441210000055e+03
-1.018504856219999965e+03
-1.018863220950000027e+03
-1.016360389120000036e+03
-1.017241221279999991e+03
-1.019060106399999995e+03
-1.013723514470000055e+03
-1.016838081350000039e+03
-1.015922137099999986e+03
-1.016477205919999960e+03
-1.014267677729999946e+03
-1.014227937740000016e+03
-1.019124873500000035e+03
-1.015271044579999966e+03
-1.018839906700000029e+03
-1.016574554059999969e+03
-1.015881617539999979e+03
-1.016339819850000026e+03
-1.015799518749999947e+03
-1.014509334390000049e+03
-1.014673677849999990e+03
-1.017585952229999975e+03
-1.017321557940000048e+03
-1.017425616279999986e+03
-1.019559738970000012e+03
-1.016262928220000049e+03
-1.020408475400000043e+03
-1.019186588929999971e+03
-1.018322449269999993e+03
-1.020835769929999969e+03
-1.016949591619999978e+03
-1.017128100639999957e+03
-1.016900527330000045e+03
-1.017246704079999972e+03
-1.018898135239999988e+03
-1.012714311520000024e+03
-1.016763713140000050e+03
-1.015916571040000008e+03
-1.020927016490000028e+03
-1.015513370180000038e+03
-1.016883824959999970e+03
-1.018575445449999961e+03
-1.015631529320000027e+03
-1.015768146819999970e+03
-1.021210539089999997e+03
-1.018414281889999984e+03
-1.018352459790000012e+03
-1.015007116620000033e+03
-1.015087124180000046e+03
-1.018554836209999962e+03
-1.012408387260000040e+03
-1.013017846419999955e+03
-1.017322268910000048e+03
-1.015717595269999947e+03
-1.012639054070000043e+03
-1.018399616029999947e+03
-1.012827355850000004e+03
-1.014956221030000052e+03
-1.014374182389999987e+03
-1.016477541979999955e+03
-1.019213738970000009e+03
-1.014242356599999994e+03
-1.018351944760000038e+03
-1.016875246810000021e+03
-1.018325167119999946e+03
-1.017139555109999947e+03
-1.019545894729999986e+03
-1.015643794169999978e+03
-1.015794751560000009e+03
-1.012225930619999986e+03
-1.012886053479999987e+03
-1.017912504779999949e+03
-1.016836786690000054e+03
-1.016709887170000002e+03
-1.017951653259999944e+03
-1.019535822789999997e+03
-1.015970667339999977e+03
-1.015989423200000033e+03
-1.016920533859999978e+03
-1.017216409379999959e+03
-1.017331976860000054e+03
-1.014975721130000011e+03
-1.018275447030000009e+03
-1.019203192560000048e+03
-1.015420078259999968e+03
-1.017702218710000011e+03
-1.021202375269999948e+03
-1.019624550119999981e+03
-1.018282683389999988e+03
-1.018187358610000047e+03
-1.014815687010000033e+03
-1.020404871759999992e+03
-1.019181929409999952e+03
-1.021132514020000031e+03
-1.017672678209999958e+03
-1.020733465410000008e+03
-1.016203696239999999e+03
-1.016518568670000036e+03
-1.016316024770000013e+03
-1.019363013700000010e+03
-1.017078340560000015e+03
-1.016712004320000005e+03
-1.017132089980000046e+03
-1.012609998300000029e+03
-1.019650623529999962e+03
-1.018642704920000028e+03
-1.016551727799999981e+03
-1.015870311740000034e+03
-1.016031312559999947e+03
-1.019517495980000035e+03
-1.018662042329999963e+03
-1.015600619990000041e+03
-1.016303001210000048e+03
-1.014628516070000046e+03
-1.016177610550000054e+03
-1.016202367470000013e+03
-1.015281012560000022e+03
-1.016766105469999957e+03
-1.014383556679999970e+03
-1.015527902700000027e+03
-1.010780035880000014e+03
-1.018400218099999961e+03
-1.014056325259999994e+03
-1.020296318499999984e+03
-1.018764259020000054e+03
-1.016355958930000043e+03
-1.013927530359999992e+03
-1.016797381940000037e+03
-1.014586721320000038e+03
-1.021897891289999961e+03
-1.016086150979999957e+03
-1.013439807920000021e+03
-1.014984691340000040e+03
-1.018215762369999993e+03
-1.015252198339999950e+03
-1.016599828870000010e+03
-1.014085491860000047e+03
-1.016706763919999958e+03
-1.016024715710000009e+03
-1.018580909209999959e+03
-1.016505433489999973e+03
-1.015636920199999963e+03
-1.015098847729999989e+03
-1.015659545109999954e+03
-1.016533653449999974e+03
-1.016218348770000034e+03
-1.017393092900000056e+03
-1.020180011450000052e+03
-1.016977993299999980e+03
-1.018044610260000013e+03
-1.017222739840000031e+03
-1.015248959979999995e+03
-1.013282201020000002e+03
-1.012470732610000027e+03
-1.019782847640000000e+03
-1.017063461839999945e+03
-1.017201688220000051e+03
-1.014736049279999975e+03
-1.018889079909999964e+03
-1.013988569109999958e+03
-1.011256831410000018e+03
-1.019869207699999947e+03
-1.019427106360000039e+03
-1.017538605200000006e+03
-1.016509448199999952e+03
-1.016245998139999983e+03
-1.011847452780000026e+03
-1.014217100719999962e+03
-1.020281132840000055e+03
-1.017402856319999955e+03
-1.018879541369999970e+03
-1.017700222980000035e+03
-1.016219560770000044e+03
-1.017597028560000012e+03
-1.016699970399999984e+03
-1.016843502019999960e+03
-1.018143477680000046e+03
-1.016790227439999967e+03
-1.020981617580000034e+03
-1.017388276600000040e+03
-1.017316490440000052e+03
-1.020515058410000051e+03
-1.018397684970000000e+03
-1.016285904250000044e+03
-1.017125917569999956e+03
-1.015050659429999996e+03
-1.017381310180000014e+03
-1.018871150380000017e+03
-1.018418489089999980e+03
-1.019562196190000009e+03
-1.013489624100000015e+03
-1.014383511160000012e+03
-1.014322104500000023e+03
-1.018374420880000002e+03
-1.018567246569999952e+03
-1.019048816320000014e+03
-1.013487899019999986e+03
-1.016759884550000038e+03
-1.014315058049999948e+03
-1.015782034619999990e+03
-1.018512867440000036e+03
-1.020514333360000023e+03
-1.018698969089999991e+03
-1.017675195250000002e+03
-1.014662171820000026e+03
-1.019542058740000016e+03
-1.017612489839999967e+03
-1.018030832410000016e+03
-1.015106184880000001e+03
-1.017167420870000001e+03
-1.017920599430000038e+03
-1.018640417510000020e+03
-1.017138521520000040e+03
-1.019132035409999958e+03
-1.021877881600000023e+03
-1.019723040139999966e+03
-1.019746573760000047e+03
-1.015813113430000044e+03
-1.018226694640000005e+03
-1.016525152019999950e+03
-1.017929585989999964e+03
-1.020689525770000046e+03
-1.009891985100000056e+03
-1.016919608479999965e+03
-1.014422909910000044e+03
-1.018831653869999968e+03
-1.017095140150000020e+03
-1.017202160339999978e+03
-1.016109530230000018e+03
-1.019056125230000021e+03
-1.018844444289999956e+03
-1.016076261159999945e+03
-1.016525472359999981e+03
-1.012919169539999984e+03
-1.019355112060000010e+03
-1.014797394400000030e+03
-1.017293983359999970e+03
-1.018726884919999975e+03
-1.017598315269999944e+03
-1.019233655580000004e+03
-1.017404215969999996e+03
-1.017831565909999995e+03
-1.014021008299999949e+03
-1.016905438610000033e+03
-1.016380375159999971e+03
-1.015946666150000055e+03
-1.019427952770000047e+03
-1.015596477670000013e+03
-1.019250815480000028e+03
-1.013922178629999962e+03
-1.016530357279999976e+03
-1.016768241310000008e+03
-1.018458994609999991e+03
-1.017885541689999968e+03
-1.017796205109999960e+03
-1.016709893159999979e+03
-1.014001693479999972e+03
-1.019690232379999998e+03
-1.018860860089999960e+03
-1.018839488660000029e+03
-1.015334807660000024e+03
-1.019406363550000037e+03
-1.016671000209999988e+03
-1.018983926979999978e+03
-1.018802213209999991e+03
-1.016482817879999971e+03
-1.020870861080000054e+03
-1.016491559029999962e+03
-1.019926834760000020e+03
-1.014341866579999987e+03
-1.015095444420000035e+03
-1.016273405219999972e+03
-1.018820908740000050e+03
-1.017961551910000026e+03
-1.017075580710000054e+03
-1.015529484900000057e+03
-1.018870103429999972e+03
-1.015122417710000036e+03
-1.013962417680000044e+03
-1.020013393250000036e+03
-1.017010336069999994e+03
-1.016437582689999999e+03
-1.020280354869999996e+03
-1.015402390719999971e+03
-1.016897133080000003e+03
-1.017703965179999955e+03
-1.020370296510000003e+03
-1.019261977740000020e+03
-1.017843457240000021e+03
-1.017311518050000018e+03
-1.017656075699999974e+03
-1.014442315340000050e+03
-1.009378508929999953e+03
-1.017765692800000011e+03
-1.016268890240000019e+03
-1.016876517980000017e+03
-1.016812835950000022e+03
-1.012836824510000042e+03
-1.012017737870000019e+03
-1.018815524269999969e+03
-1.020164331930000003e+03
-1.017303209919999972e+03
-1.014407125609999980e+03
-1.016679035569999996e+03
-1.019270328629999995e+03
-1.018615744370000016e+03
-1.014875379749999979e+03
-1.015542014849999987e+03
-1.015017743010000004e+03
-1.019849209470000005e+03
-1.016481195149999962e+03
-1.016951201559999959e+03
-1.017560419610000054e+03
-1.013350756250000018e+03
-1.020036529780000023e+03
-1.018388538670000003e+03
-1.013621033190000048e+03
-1.017453026339999951e+03
-1.012451119660000018e+03
-1.020031295799999953e+03
-1.013905552690000036e+03
-1.016697106439999970e+03
-1.018245602759999997e+03
-1.018057946570000013e+03
-1.019988945169999965e+03
-1.013928955449999989e+03
-1.014302421109999955e+03
-1.016311704729999974e+03
-1.014687858170000027e+03
-1.014901767070000005e+03
-1.016018306609999968e+03
-1.018108208040000022e+03
-1.017213448159999984e+03
-1.016638793080000028e+03
-1.014840681470000050e+03
-1.014783935039999960e+03
-1.016238733140000022e+03
-1.019125388970000017e+03
-1.018477296890000048e+03
-1.017450287010000011e+03
-1.016125106490000007e+03
-1.014869090000000028e+03
-1.013203348819999974e+03
-1.021572052389999953e+03
-1.018509998890000020e+03
-1.019007806660000028e+03
-1.012730111920000013e+03
-1.017822688390000053e+03
-1.016184917929999983e+03
-1.016404424039999981e+03
-1.016467106599999966e+03
-1.016382924369999955e+03
-1.022120277030000011e+03
-1.019382433200000037e+03
-1.018024288899999988e+03
-1.017773749080000016e+03
-1.018703284420000045e+03
-1.014934587589999978e+03
-1.019880131519999964e+03
-1.018049930560000007e+03
-1.018884662779999985e+03
-1.018547979950000013e+03
-1.014818753700000002e+03
-1.015397889869999972e+03
-1.018638642770000047e+03
-1.018698522570000023e+03
-1.016884771109999974e+03
-1.016204468199999951e+03
-1.015191379910000023e+03
-1.014763546079999969e+03
-1.019744047720000026e+03
-1.019013829650000048e+03
-1.018189129030000004e+03
-1.016321585489999961e+03
-1.019156436090000057e+03
-1.016140852289999998e+03
-1.013853112900000042e+03
-1.017369469520000052e+03
-1.018448867319999977e+03
-1.019016213519999951e+03
-1.018169848340000044e+03
-1.019421655969999961e+03
-1.017455566360000034e+03
-1.018203067680000004e+03
-1.018832463559999951e+03
-1.016709670670000037e+03
-1.017694808839999951e+03
-1.016414112349999982e+03
-1.017704082969999945e+03
-1.015404948139999988e+03
-1.014452064769999993e+03
-1.015405300509999961e+03
-1.017331706540000027e+03
-1.019632211729999995e+03
-1.015372821349999981e+03
-1.012593687680000016e+03
-1.016153558829999952e+03
-1.013344508700000006e+03
-1.018738978200000020e+03
-1.018688835400000016e+03
-1.015099143819999995e+03
-1.013928892949999977e+03
-1.017857334779999974e+03
-1.021054066489999968e+03
-1.018941372060000049e+03
-1.017117081320000011e+03
-1.017625870240000040e+03
-1.015763935899999979e+03
-1.018017348370000036e+03
-1.014440395449999983e+03
-1.016406553639999970e+03
-1.018088176849999968e+03
-1.018714674299999956e+03
-1.016876180380000051e+03
-1.016992415860000051e+03
-1.013111869049999996e+03
-1.015138523709999959e+03
-1.018065139929999987e+03
-1.016152046349999978e+03
-1.015386951500000009e+03
-1.012765012240000033e+03
-1.020283250270000053e+03
-1.018948571089999973e+03
-1.015057599460000006e+03
-1.017754493610000054e+03
-1.015739718120000020e+03
-1.017176268619999973e+03
-1.015811828050000031e+03
-1.021220698149999976e+03
-1.017615826859999970e+03
-1.014759589389999974e+03
-1.015272374280000008e+03
-1.015892791800000055e+03
-1.016516997940000010e+03
-1.013410178549999955e+03
-1.016771378450000043e+03
-1.014151161460000026e+03
-1.016456320649999952e+03
-1.019063560140000050e+03
-1.019902790539999955e+03
-1.017364039820000016e+03
-1.017920393379999950e+03
-1.015852184680000050e+03
-1.014936439950000022e+03
-1.013984786480000025e+03
-1.016581257520000008e+03
-1.019066141379999976e+03
-1.018703334519999999e+03
-1.021002562890000036e+03
-1.016269321959999957e+03
-1.020651405609999983e+03
-1.015842418309999971e+03
-1.016997477490000051e+03
-1.017753039660000013e+03
-1.016474869679999983e+03
-1.015116348629999948e+03
-1.016114306000000056e+03
-1.017720177820000004e+03
-1.016504342500000007e+03
-1.018496689220000007e+03
-1.018754961139999978e+03
-1.017373040080000010e+03
-1.019340509640000050e+03
-1.017416471740000020e+03
-1.019332658229999993e+03
-1.012472158000000036e+03
-1.014297445290000041e+03
-1.015981076010000038e+03
-1.012585016389999964e+03
-1.014541068569999993e+03
-1.014102314829999955e+03
-1.014344799999999964e+03
-1.016519694980000054e+03
-1.014727992879999988e+03
-1.015247741829999995e+03
-1.014902567780000027e+03
-1.014596716030000039e+03
-1.018821844510000005e+03
-1.014349478360000035e+03
-1.009879310759999953e+03
-1.017358280079999986e+03
-1.018889048069999944e+03
-1.016753548010000031e+03
-1.017359844120000048e+03
-1.017439279719999945e+03
-1.014870999040000015e+03
-1.018963465039999960e+03
-1.016719061969999984e+03
-1.017533446890000050e+03
-1.016277608030000010e+03
-1.017585445619999973e+03
-1.017149229519999949e+03
-1.017187388830000032e+03
-1.017864546420000011e+03
-1.015312769099999969e+03
-1.015855455689999985e+03
-1.017982118190000051e+03
-1.018084594850000030e+03
-1.018161659020000002e+03
-1.019021945240000036e+03
-1.014502504739999949e+03
-1.012634991229999969e+03
-1.016790353490000030e+03
-1.015963235810000015e+03
-1.014827434329999960e+03
-1.017888313479999965e+03
-1.017214865430000032e+03
-1.013372225269999944e+03
-1.019364853580000045e+03
-1.016422183710000013e+03
-1.016067272910000042e+03
-1.011191866490000052e+03
-1.013341258020000055e+03
-1.014605208029999972e+03
-1.017721043310000027e+03
-1.018134007699999984e+03
-1.019412140010000030e+03
-1.015890470580000056e+03
-1.017315950359999988e+03
-1.017956830100000047e+03
-1.018747525849999988e+03
-1.017483614099999954e+03
-1.018563423729999954e+03
-1.016099330160000022e+03
-1.014448200479999969e+03
-1.012854176349999989e+03
-1.015963668610000013e+03
-1.015586422930000026e+03
-1.020094035699999949e+03
-1.013309253860000013e+03
-1.017794515889999957e+03
-1.014625217949999978e+03
-1.017919215379999969e+03
-1.011601405290000002e+03
-1.014130572970000003e+03
-1.012250813630000039e+03
-1.012765243489999989e+03
-1.018018737160000001e+03
-1.016460147089999964e+03
-1.015246643650000010e+03
-1.015973325520000003e+03
-1.018274892649999970e+03
-1.019067478250000022e+03
-1.017476819670000054e+03
-1.021378345110000055e+03
-1.015863018420000003e+03
-1.017905673259999958e+03
-1.016711644370000045e+03
-1.014744822969999973e+03
-1.014677140269999995e+03
-1.018701073339999994e+03
-1.018993171469999993e+03
-1.020119562399999950e+03
-1.021388475680000056e+03
-1.017095052330000044e+03
-1.016541296529999954e+03
-1.018897964969999975e+03
-1.016259189569999990e+03
-1.016684309950000056e+03
-1.013782810850000033e+03
-1.015056459949999976e+03
-1.016205230280000023e+03
-1.018227869370000008e+03
-1.019323590220000028e+03
-1.016659222399999976e+03
-1.014594485739999982e+03
-1.014218135670000038e+03
-1.019270722449999994e+03
-1.017615208400000029e+03
-1.017461410500000056e+03
-1.019243383679999965e+03
-1.014960590199999956e+03
-1.016999372669999957e+03
-1.017823654680000004e+03
-1.016226975899999957e+03
-1.017276814230000014e+03
-1.016146399689999953e+03
-1.018869276219999961e+03
-1.018053810999999996e+03
-1.019236036679999984e+03
-1.016807577150000043e+03
-1.016659780920000003e+03
-1.011829542189999984e+03
-1.013427995689999989e+03
-1.018397097020000047e+03
-1.016194758600000000e+03
-1.014729581290000056e+03
-1.018395552410000050e+03
-1.014859212569999954e+03
-1.018737363510000023e+03
-1.016929875789999983e+03