-2.256105820714769585e-03 -4.372139693626467608e-03 -3.704753847323148143e-03 -4.372139693626467608e-03 -7.851163121902921330e-03 -3.273684019544020711e-03 -3.704753847323148143e-03 -3.273684019544020711e-03 -5.447121051886465691e-03
-1.482508837767207779e-02 5.660799116811079251e-03 8.653309391743186155e-03 5.660799116811079251e-03 -1.246398164893257159e-02 9.280137911746515894e-03 8.653309391743186155e-03 9.280137911746515894e-03 -1.191931635506236938e-02
7.455282922575523497e-03 -6.205083678624603687e-03 -1.657682408743334484e-04 -6.205083678624603687e-03 -9.905480952577884121e-03 5.781516144814788198e-03 -1.657682408743334484e-04 5.781516144814788198e-03 -1.340422754969213155e-02
-1.715391402121251019e-02 5.755470327232477604e-03 5.819277275026382180e-03 5.755470327232477604e-03 -6.191932818896367201e-03 2.346651393603957966e-03 5.819277275026382180e-03 2.346651393603957966e-03 -1.211639200571213403e-02
-6.413213041936306064e-04 -3.937362409426565374e-03 1.333752454166381787e-02 -3.937362409426565374e-03 8.266816422141116515e-04 -4.918565093070169369e-03 1.333752454166381787e-02 -4.918565093070169369e-03 -7.396762533011242216e-03
2.907688165911352218e-03 -4.805718608074199122e-03 7.965239184196689845e-03 -4.805718608074199122e-03 -2.341533356120733753e-02 1.722781348926297196e-03 7.965239184196689845e-03 1.722781348926297196e-03 2.315213536287796456e-02
-1.018850218389106069e-02 5.818621916568163764e-03 -7.565333211483096483e-04 5.818621916568163764e-03 8.586275583731197911e-03 5.688243032437588151e-03 -7.565333211483096483e-04 5.688243032437588151e-03 -1.517207259450730622e-02
1.364393894918080138e-05 -6.319322020155644128e-03 1.229826958164037044e-04 -6.319322020155644128e-03 -5.276378328238804163e-03 2.818128751464053349e-03 1.229826958164037044e-04 2.818128751464053349e-03 -1.187923338345594874e-02
-6.589660504925026925e-03 3.337122718299497665e-03 5.191562460727176505e-04 3.337122718299497665e-03 -2.439150558849548234e-02 1.256553100241069231e-03 5.191562460727176505e-04 1.256553100241069231e-03 1.177050629448306122e-02
1.256272232330404815e-03 -3.492985684191054607e-03 6.225012817263548756e-03 -3.492985684191054607e-03 -6.503521437478712933e-03 8.071269941227194981e-04 6.225012817263548756e-03 8.071269941227194981e-04 -1.082833176740360471e-03
-2.482025981638890516e-02 -2.359552592967158451e-03 -1.595754155196320865e-03 -2.359552592967158451e-03 -2.125306883020022103e-02 -9.923668710170710505e-03 -1.595754155196320865e-03 -9.923668710170710505e-03 -1.069556238527781707e-02
-8.896734489161757867e-03 6.768598330054972738e-03 3.964737668452689330e-03 6.768598330054972738e-03 -8.479239943731427601e-03 -2.351263868847985449e-03 3.964737668452689330e-03 -2.351263868847985449e-03 -5.952333766571961046e-03
-1.232531404068282557e-02 -2.895036626913186431e-03 3.127052245649645547e-03 -2.895036626913186431e-03 -1.106600219340811604e-02 -1.046295382317440070e-02 3.127052245649645547e-03 -1.046295382317440070e-02 -3.202418468344685361e-03
-1.669784070787509733e-02 -3.253636292231684235e-04 1.383080973240974646e-03 -3.253636292231684235e-04 -1.758342971321929377e-02 8.432091583794504340e-04 1.383080973240974646e-03 8.432091583794504340e-04 -9.534754035027797822e-03
-2.193396130225195098e-02 -1.310801800959596197e-02 -1.512618501941380943e-02 -1.310801800959596197e-02 -2.991867399492139507e-03 8.231807797454037540e-03 -1.512618501941380943e-02 8.231807797454037540e-03 -1.319128598284437064e-02
-2.789440903068756208e-02 1.170495172413390985e-03 1.044391722034045654e-04 1.170495172413390985e-03 -2.485325867513744902e-02 1.386757222116119948e-03 1.044391722034045654e-04 1.386757222116119948e-03 -2.453681416245516445e-02
-1.697421473196920536e-02 4.244232447109742151e-03 -8.126407432845247913e-03 4.244232447109742151e-03 -1.122142201215173274e-02 -2.387427172723353107e-03 -8.126407432845247913e-03 -2.387427172723353107e-03 7.631418310107948924e-03
-5.425987301986226127e-03 1.403028836407297600e-04 4.388380100372015272e-03 1.403028836407297600e-04 -2.462228538842501160e-02 4.711228401417452694e-03 4.388380100372015272e-03 4.711228401417452694e-03 1.079625041049656585e-03
-1.447201868943911139e-02 -8.124503772561852966e-03 -1.310255044760169066e-03 -8.124503772561852966e-03 -1.317043934236391926e-02 3.497829095272740694e-03 -1.310255044760169066e-03 3.497829095272740694e-03 -5.226558602396004678e-03
-1.611723056294893028e-02 -2.628730157039125756e-03 9.613609261324205721e-03 -2.628730157039125756e-03 -3.117791718559572572e-02 -4.515163875246082197e-03 9.613609261324205721e-03 -4.515163875246082197e-03 -1.009526652056861587e-03
3.610569474613569470e-03 2.853767768572846968e-03 -1.061474732511588030e-03 2.853767768572846968e-03 -9.359642254992014965e-03 3.082481628981712830e-03 -1.061474732511588030e-03 3.082481628981712830e-03 -1.879587406846774597e-02
-1.340349729312440008e-02 1.002230327888704257e-03 -2.549831240178835820e-03 1.002230327888704257e-03 -7.794796052987070130e-03 -9.613109940594136106e-04 -2.549831240178835820e-03 -9.613109940594136106e-04 -2.155351011348373771e-02
-7.388810850384866687e-03 -8.120777591613699900e-03 -7.113385535677890781e-03 -8.120777591613699900e-03 -1.576231338801470719e-02 3.985253508949467872e-03 -7.113385535677890781e-03 3.985253508949467872e-03 -6.729732452728098488e-03
-3.356178045660819335e-03 6.783147287827408179e-04 4.369886508832024168e-03 6.783147287827408179e-04 -3.444589022428956333e-03 -3.581777393015870246e-03 4.369886508832024168e-03 -3.581777393015870246e-03 -1.007896369873181007e-02
3.025271956333866648e-03 -5.952745706174268972e-03 4.499266751502457515e-03 -5.952745706174268972e-03 -2.077373965385976434e-03 1.079007755797106900e-02 4.499266751502457515e-03 1.079007755797106900e-02 -2.055725915133763126e-02
-1.841247688739211519e-02 -1.384878527869229208e-03 7.816391674562625166e-03 -1.384878527869229208e-03 -1.291149161174927687e-02 2.941180103880842132e-03 7.816391674562625166e-03 2.941180103880842132e-03 -2.764604065804129179e-02
-1.183501853280819090e-02 4.379230047993470758e-03 4.310205198570327828e-03 4.379230047993470758e-03 3.585597196600911162e-03 -8.931025340299362028e-03 4.310205198570327828e-03 -8.931025340299362028e-03 -9.050955938153207314e-03
8.587642474229767800e-03 2.232494191691553487e-03 7.012959653842429234e-04 2.232494191691553487e-03 1.466178553290246704e-02 1.468208916208896438e-03 7.012959653842429234e-04 1.468208916208896438e-03 -9.195197214052370019e-03
-9.709485083006898568e-03 -5.209413176827203248e-04 -5.147553579880574139e-03 -5.209413176827203248e-04 -5.753410629220936240e-03 1.006799112568850787e-03 -5.147553579880574139e-03 1.006799112568850787e-03 -1.565486580841262548e-02
-8.234572785996803132e-03 8.626870359085945031e-03 1.141993945140957686e-02 8.626870359085945031e-03 -2.506240540443667453e-02 9.651270527389786344e-03 1.141993945140957686e-02 9.651270527389786344e-03 -2.415813556227870348e-03
8.426599055763728599e-03 1.786438500501180216e-03 2.477017794716281692e-03 1.786438500501180216e-03 -4.451469274616443733e-03 -8.161497197150962418e-03 2.477017794716281692e-03 -8.161497197150962418e-03 -1.176327238540616181e-02
-1.839479469203849152e-02 5.772559579219144893e-03 -3.362868943443766447e-03 5.772559579219144893e-03 -2.811718721591771521e-03 -2.474770851430963762e-03 -3.362868943443766447e-03 -2.474770851430963762e-03 -3.099247570795660503e-02
-7.308932016591813616e-03 2.699171829033844387e-03 3.977838596107918269e-03 2.699171829033844387e-03 -1.543776115497790327e-02 2.271659661456470851e-03 3.977838596107918269e-03 2.271659661456470851e-03 -2.450533199042421312e-02
-1.678693825064708073e-02 -2.558007617133742709e-03 -6.781424631308664505e-03 -2.558007617133742709e-03 -2.595298137557244811e-02 3.737577943816168188e-03 -6.781424631308664505e-03 3.737577943816168188e-03 -2.001760578929551171e-02
-8.621434004637299961e-03 3.334457593902745865e-03 3.393221402322936335e-03 3.334457593902745865e-03 1.357153744332055675e-03 -7.461399601518889022e-03 3.393221402322936335e-03 -7.461399601518889022e-03 1.355394887060381963e-02
-1.611862866099313119e-02 -6.866883374260258042e-03 -4.854539692456858076e-03 -6.866883374260258042e-03 -2.033746440746965131e-02 -2.757985569527042404e-03 -4.854539692456858076e-03 -2.757985569527042404e-03 -6.963901392112987684e-03
-2.670598824406463304e-02 -8.408966792483109007e-03 -7.593738319514992639e-03 -8.408966792483109007e-03 -2.556151392319704757e-02 -1.934618168658774808e-04 -7.593738319514992639e-03 -1.934618168658774808e-04 -3.110589017028303482e-02
-1.277137597338232284e-03 -4.050639558552220076e-03 -1.104681579435514913e-02 -4.050639558552220076e-03 -4.529725316036767140e-03 2.951984156177746136e-04 -1.104681579435514913e-02 2.951984156177746136e-04 4.230114153466993550e-03
-1.460965644868309106e-02 6.800180366231942629e-03 -2.529277950627302051e-03 6.800180366231942629e-03 -2.859202874719666068e-02 -3.204353336173709592e-03 -2.529277950627302051e-03 -3.204353336173709592e-03 -2.477121403767771138e-02
-8.126064149843322329e-03 -4.221744289729184585e-03 1.282380465003974410e-03 -4.221744289729184585e-03 -7.736662636988591918e-04 6.382161534035038324e-03 1.282380465003974410e-03 6.382161534035038324e-03 -5.923616583083771842e-03
3.638094529858714767e-03 -8.032160645044410241e-03 -1.020327583599202510e-02 -8.032160645044410241e-03 -1.101934067118301268e-02 -6.558927313989176659e-03 -1.020327583599202510e-02 -6.558927313989176659e-03 -1.622736823298426972e-02
-1.346918917667432394e-02 8.245919849587659764e-03 4.390545904038697239e-03 8.245919849587659764e-03 -1.297678403871514036e-02 -2.464884300975564869e-03 4.390545904038697239e-03 -2.464884300975564869e-03 -4.226025964989540105e-03
-8.397819457184280828e-03 -4.760399010311161332e-04 5.714582200948815915e-03 -4.760399010311161332e-04 -1.149380147040527950e-03 5.453256455357210347e-03 5.714582200948815915e-03 5.453256455357210347e-03 2.312054708519187349e-03
-3.815103728668764460e-03 -7.540317242906558089e-03 2.516907279539801982e-03 -7.540317242906558089e-03 -1.737948216102193442e-03 -4.015724556502030035e-04 2.516907279539801982e-03 -4.015724556502030035e-04 -2.854722719469106763e-03
-2.136278207761500153e-02 1.756485498206066366e-03 2.420494688072282775e-03 1.756485498206066366e-03 1.279281555722973016e-02 1.328090157087380256e-02 2.420494688072282775e-03 1.328090157087380256e-02 -1.643926122629887779e-03
-2.327510557567611868e-02 4.996590198652835907e-03 5.321960069385129298e-03 4.996590198652835907e-03 -2.268398472938196880e-02 -6.251227155592258521e-03 5.321960069385129298e-03 -6.251227155592258521e-03 -2.276309585755253648e-02
-2.399146230258112147e-02 6.929635507011887513e-04 -3.307818832953476722e-03 6.929635507011887513e-04 -9.136358507522668662e-03 -1.634804157042409403e-02 -3.307818832953476722e-03 -1.634804157042409403e-02 7.633222106245330513e-03
5.908792998909799012e-03 3.517196498090355630e-03 5.151279760828725469e-03 3.517196498090355630e-03 -2.605126641977772994e-02 -2.474284013719144949e-03 5.151279760828725469e-03 -2.474284013719144949e-03 -6.383490975478849951e-03
-1.921856154949081255e-02 -1.659217819988301808e-03 -1.195654695699826294e-03 -1.659217819988301808e-03 -2.192894312891474282e-02 -3.213603252698268332e-03 -1.195654695699826294e-03 -3.213603252698268332e-03 -8.537198597474380049e-03
-8.549032498777054193e-03 6.676979217596132506e-03 1.031409383052208500e-03 6.676979217596132506e-03 -1.645545170097142268e-02 5.764657828665777344e-04 1.031409383052208500e-03 5.764657828665777344e-04 -5.724056811801906015e-03
5.941667027475827471e-03 1.227531331107537330e-02 -4.143700459619139784e-03 1.227531331107537330e-02 7.835478209469575253e-03 -4.033013536780725669e-04 -4.143700459619139784e-03 -4.033013536780725669e-04 -1.375332763812103266e-02
-1.222764066437187665e-02 -8.260194180958553914e-03 -2.252273534111477217e-03 -8.260194180958553914e-03 -2.241546252376821688e-02 -3.075110406704044830e-03 -2.252273534111477217e-03 -3.075110406704044830e-03 -1.765380272861362745e-02
1.084249999311936172e-03 5.499112822905073521e-03 -4.850744854908320934e-03 5.499112822905073521e-03 1.581904246445985660e-03 1.139375007911737001e-03 -4.850744854908320934e-03 1.139375007911737001e-03 -5.716267408412804146e-03
-6.883367199861715330e-03 1.608044934967010203e-02 -4.643439370801235276e-03 1.608044934967010203e-02 -6.579112354502283889e-04 6.598117749790599097e-03 -4.643439370801235276e-03 6.598117749790599097e-03 -1.521352869812142052e-02
-8.997609759654284084e-03 -4.929007137837771585e-03 -3.374996195675357327e-03 -4.929007137837771585e-03 5.749260025652223362e-03 -5.159599692493528622e-03 -3.374996195675357327e-03 -5.159599692493528622e-03 -5.541623741561464873e-03
-2.256463459187682541e-02 -8.710618928537045697e-03 4.458272519563656090e-03 -8.710618928537045697e-03 -1.492552674252578884e-02 5.541592534015835590e-03 4.458272519563656090e-03 5.541592534015835590e-03 -3.341703985997896299e-03
9.205882677675880990e-03 2.979977324607332306e-03 -9.292783209235554870e-03 2.979977324607332306e-03 2.082498244378326938e-03 -6.380170492623880169e-03 -9.292783209235554870e-03 -6.380170492623880169e-03 -1.988089177340216472e-03
-1.757763135124134832e-02 5.440617399377296014e-03 -7.388879506985251630e-03 5.440617399377296014e-03 -1.805562484462886613e-02 -4.664535671646720047e-03 -7.388879506985251630e-03 -4.664535671646720047e-03 3.582002087344401389e-04
-2.792933651575600293e-02 -6.450281364634927704e-03 1.531466611199723202e-03 -6.450281364634927704e-03 -1.989321251241665811e-02 -3.247126398213387530e-03 1.531466611199723202e-03 -3.247126398213387530e-03 -2.341653817246863029e-02
-8.233936152065964714e-03 3.461821829125519886e-03 -4.310773175900783037e-03 3.461821829125519886e-03 -4.357534562271900627e-03 3.753799626034338456e-03 -4.310773175900783037e-03 3.753799626034338456e-03 -6.938361136769871998e-03
-9.913014454092825348e-03 -3.189267608616449742e-03 1.678529049223784556e-03 -3.189267608616449742e-03 7.189538188522791654e-03 6.284275946413810793e-03 1.678529049223784556e-03 6.284275946413810793e-03 -1.478796388139132396e-02
-2.209534176221079199e-02 8.703703336425566359e-03 -7.881571754364226010e-03 8.703703336425566359e-03 -2.693411540261566456e-02 -6.689942832050592425e-03 -7.881571754364226010e-03 -6.689942832050592425e-03 -2.023680134828740804e-02
-4.287623418552881545e-03 -2.320493228857381258e-03 8.237094355683659969e-03 -2.320493228857381258e-03 -2.072112373192857345e-03 5.679461229097471043e-04 8.237094355683659969e-03 5.679461229097471043e-04 -8.945293430161130668e-03
-1.812100465272249369e-02 4.034199423514643525e-04 -2.362411204146813357e-04 4.034199423514643525e-04 -9.598067903600756776e-04 -1.671456171082333700e-02 -2.362411204146813357e-04 -1.671456171082333700e-02 -5.602035308390889215e-03
-7.157450590106625987e-03 -3.706557643460528430e-03 5.000191549418469238e-03 -3.706557643460528430e-03 2.890486566760418381e-03 -4.064558123902939357e-03 5.000191549418469238e-03 -4.064558123902939357e-03 -1.880754569053314992e-02
-1.035913880188358248e-02 -1.917129460088049962e-03 1.618043832586675210e-02 -1.917129460088049962e-03 -2.226960469700545175e-02 3.664895570045257570e-03 1.618043832586675210e-02 3.664895570045257570e-03 -1.058336501723094146e-02
-1.584109995771073101e-02 2.713683337751522867e-04 -8.574335576773384898e-03 2.713683337751522867e-04 -5.359334226030919128e-03 1.094099100712579839e-03 -8.574335576773384898e-03 1.094099100712579839e-03 3.001435632982119191e-03
-8.617314608614217233e-03 9.324658596341441064e-03 2.956446835202752171e-03 9.324658596341441064e-03 -3.060330513093953604e-03 2.638853884841308329e-03 2.956446835202752171e-03 2.638853884841308329e-03 1.242391116034440111e-03
-3.110896099277296600e-02 -3.294081271367406980e-04 2.504867408435972574e-03 -3.294081271367406980e-04 -1.138277750607406651e-02 2.567282499694805223e-03 2.504867408435972574e-03 2.567282499694805223e-03 -1.738483113434281455e-02
-1.381521844261329041e-02 4.091365405598608972e-03 2.426499019851382621e-03 4.091365405598608972e-03 -2.205605770377248344e-03 4.215646335313196456e-03 2.426499019851382621e-03 4.215646335313196456e-03 -1.696042723831013175e-03
-1.048954889355978824e-02 -1.418607643185502368e-03 -3.837348467193411536e-03 -1.418607643185502368e-03 -7.546103121866250783e-03 -3.844295266850519723e-03 -3.837348467193411536e-03 -3.844295266850519723e-03 -9.800080587969096230e-03
-1.766873865995186726e-02 -1.002941859929054862e-03 9.418480961521718056e-03 -1.002941859929054862e-03 -1.360243291349368111e-02 1.105717669950411625e-02 9.418480961521718056e-03 1.105717669950411625e-02 -1.467242730596209771e-02
-2.416830922215389144e-03 4.869400725685586566e-03 -5.005409451047708458e-03 4.869400725685586566e-03 1.401364225923424668e-02 6.294412157234243951e-03 -5.005409451047708458e-03 6.294412157234243951e-03 -5.072511915660079043e-03
-2.192308859335466431e-02 -1.788566855113106360e-04 -4.816903392427782093e-03 -1.788566855113106360e-04 -5.070520874248922623e-03 9.437473873791780944e-04 -4.816903392427782093e-03 9.437473873791780944e-04 -3.076557188519424280e-02
-7.952849788581812379e-03 6.522189791274227849e-03 1.430146945257435194e-02 6.522189791274227849e-03 -7.787081547707476979e-03 -5.196680498210400875e-05 1.430146945257435194e-02 -5.196680498210400875e-05 -9.214889175344530975e-03
-2.813784661112438829e-03 4.354388841672454658e-03 1.065300777605754427e-04 4.354388841672454658e-03 2.211404132355193793e-03 6.041911905546638178e-03 1.065300777605754427e-04 6.041911905546638178e-03 1.336220346874755771e-02
-2.132290507580973313e-02 1.993051177095294182e-03 6.000212383076611658e-03 1.993051177095294182e-03 -1.496687674048476600e-02 -3.520579396036585280e-03 6.000212383076611658e-03 -3.520579396036585280e-03 -1.539536882499490354e-02
-2.122844607669861078e-02 5.327689774762690671e-03 2.057831800312835951e-03 5.327689774762690671e-03 -1.760277839150953261e-02 9.280194085328648951e-03 2.057831800312835951e-03 9.280194085328648951e-03 -8.159581053849316451e-03
-2.787320662418693498e-03 -3.446561339312735031e-05 -2.576120476617056363e-04 -3.446561339312735031e-05 -9.405217754629215457e-03 -7.666695319687441080e-04 -2.576120476617056363e-04 -7.666695319687441080e-04 -5.738630735610844580e-03
1.258067914505921030e-02 2.867093390556607699e-03 -6.403463804681677057e-03 2.867093390556607699e-03 1.352946967181210391e-03 5.480650438910710832e-03 -6.403463804681677057e-03 5.480650438910710832e-03 7.659898316249354883e-03
-1.570736314167043082e-02 3.470896983394553947e-03 4.397436530113671936e-03 3.470896983394553947e-03 -2.264314653517131293e-02 -2.129584189223990114e-03 4.397436530113671936e-03 -2.129584189223990114e-03 -7.991884186655084932e-03
-1.335956955189643650e-02 7.068115869987860213e-03 -1.310086524013770112e-03 7.068115869987860213e-03 -6.288869697130460013e-03 1.096050196465330785e-02 -1.310086524013770112e-03 1.096050196465330785e-02 4.084324983304612501e-03
7.052043983988709117e-03 2.729012484164691690e-03 4.163854292586617080e-03 2.729012484164691690e-03 -1.029173050332404457e-02 5.636681925548667378e-03 4.163854292586617080e-03 5.636681925548667378e-03 -1.961298123568275265e-02
-1.615228911970902070e-02 -6.271118845176448797e-03 9.557267158444859162e-03 -6.271118845176448797e-03 -7.638483698438449168e-03 1.097694209969088744e-02 9.557267158444859162e-03 1.097694209969088744e-02 -2.127538846683438289e-02
-5.739810380835635301e-03 -1.085050160781874350e-02 1.000182488744501969e-02 -1.085050160781874350e-02 -4.097088869467043967e-03 -1.436358495139514288e-04 1.000182488744501969e-02 -1.436358495139514288e-04 -3.535690713781260847e-02
-1.272198691166920824e-02 -1.748293517478344966e-02 -4.702184454694047916e-03 -1.748293517478344966e-02 -1.172628520232617787e-02 -6.571691200151608993e-03 -4.702184454694047916e-03 -6.571691200151608993e-03 -1.785217037165244894e-02
-3.064698321180246710e-02 1.675058770149793434e-03 -2.113412439078826525e-03 1.675058770149793434e-03 -2.449543295695056147e-02 -1.229308912906589002e-03 -2.113412439078826525e-03 -1.229308912906589002e-03 -1.618507576714728335e-02
-1.163414180310076360e-02 2.521725724584983862e-03 -3.569325582309732479e-03 2.521725724584983862e-03 -3.627458998308209608e-03 -1.005488395652415256e-03 -3.569325582309732479e-03 -1.005488395652415256e-03 -5.957439321036933286e-03
-5.417036977899709199e-03 -4.604898051948905745e-03 -7.057948451621795169e-03 -4.604898051948905745e-03 -5.765887405963576913e-03 9.982794526120202655e-04 -7.057948451621795169e-03 9.982794526120202655e-04 -1.522490072774878266e-02
-9.883173798961978479e-03 -4.158842360758532690e-03 7.620882642703457992e-05 -4.158842360758532690e-03 -1.500385144054649893e-02 -4.943506163537198829e-03 7.620882642703457992e-05 -4.943506163537198829e-03 7.483113811767837416e-03
3.095076994397745127e-03 1.472964946162819535e-03 1.891352027398152114e-03 1.472964946162819535e-03 -4.393248477490204265e-03 6.993536077442679723e-03 1.891352027398152114e-03 6.993536077442679723e-03 1.150141611153885669e-03
-6.094658899169477784e-03 -5.652310664399878663e-04 4.106476099192371727e-03 -5.652310664399878663e-04 1.141845397223761709e-02 5.287644252211023965e-03 4.106476099192371727e-03 5.287644252211023965e-03 2.355913793146768593e-03
7.497831290286670509e-03 -3.521609245042355528e-03 -2.591973909796799549e-03 -3.521609245042355528e-03 1.802710114792357597e-03 5.322671601425479904e-03 -2.591973909796799549e-03 5.322671601425479904e-03 5.499019200268186105e-04
1.935573119555035037e-03 1.470341015726298051e-02 3.406484609215438934e-03 1.470341015726298051e-02 -1.332203311601337127e-02 -3.180460839239827777e-03 3.406484609215438934e-03 -3.180460839239827777e-03 -1.244635562716107750e-02
4.971037460291469201e-03 -6.531558296472179947e-03 9.545526879779071133e-03 -6.531558296472179947e-03 3.353587819373577989e-03 5.892221792180578517e-03 9.545526879779071133e-03 5.892221792180578517e-03 7.694413861715489536e-03
-1.912955762935571527e-02 3.411109567477718305e-03 2.438476475863952594e-03 3.411109567477718305e-03 5.041279403994158512e-03 5.085906194244224285e-03 2.438476475863952594e-03 5.085906194244224285e-03 -3.033804099308949273e-03
9.437973194521852077e-04 -2.838263859904152382e-03 -7.374467862413586943e-04 -2.838263859904152382e-03 -6.144353794829760136e-03 7.340638882951299122e-04 -7.374467862413586943e-04 7.340638882951299122e-04 1.509970853770181308e-03
8.141430745311248329e-03 -4.717607223744105238e-03 -3.311245421463585915e-04 -4.717607223744105238e-03 -1.893017886183850224e-02 5.453175315738573517e-03 -3.311245421463585915e-04 5.453175315738573517e-03 -7.293359451322734520e-03
-7.370092564516343356e-03 -2.521888003822256655e-03 1.569739545159639336e-03 -2.521888003822256655e-03 -1.016424143791875428e-02 -5.660374694190519439e-03 1.569739545159639336e-03 -5.660374694190519439e-03 -1.353044334723573980e-02
-1.159000185056251707e-02 3.205751434217907463e-03 2.151229742872553131e-03 3.205751434217907463e-03 -1.396733650302931472e-02 5.273944139679709667e-03 2.151229742872553131e-03 5.273944139679709667e-03 -2.243155313429474190e-02
-2.653575108265616989e-02 -3.279213996629552763e-03 4.889623215253447938e-03 -3.279213996629552763e-03 -1.972661415082858222e-02 5.842008851262848503e-03 4.889623215253447938e-03 5.842008851262848503e-03 -1.843417237311368792e-02
1.749956879660392699e-03 -1.219409879432938005e-03 7.505895320077310418e-03 -1.219409879432938005e-03 6.597044210220946378e-03 -3.296552908981256920e-03 7.505895320077310418e-03 -3.296552908981256920e-03 8.604862797908079466e-03
-6.528599821146510544e-03 -4.818388871599741871e-03 1.671314488825176303e-02 -4.818388871599741871e-03 7.751910643783125644e-03 2.719631495948489873e-03 1.671314488825176303e-02 2.719631495948489873e-03 -2.174215348530443570e-02
-5.556609604972711364e-03 -7.199231252195289338e-03 7.534244254527072866e-03 -7.199231252195289338e-03 -1.873084378488516777e-02 1.452909104888618769e-02 7.534244254527072866e-03 1.452909104888618769e-02 -8.251231373853785966e-03
-2.837699627479172912e-02 -1.045702438950481158e-04 -5.362030557973300644e-03 -1.045702438950481158e-04 -1.096828512653328508e-02 -3.619950462829772155e-03 -5.362030557973300644e-03 -3.619950462829772155e-03 -8.669830666399397368e-03
-2.238623977804083190e-02 7.601958387033779831e-03 1.771515052181193593e-03 7.601958387033779831e-03 -3.131418181283200652e-02 -1.001773449420689625e-02 1.771515052181193593e-03 -1.001773449420689625e-02 -1.120686057136104606e-02
-2.752491793194440303e-02 1.151589641271090654e-03 1.741237491411533507e-03 1.151589641271090654e-03 -2.623268212403065403e-02 1.418932201660048171e-03 1.741237491411533507e-03 1.418932201660048171e-03 -1.802605881589955730e-02
1.192430956236307550e-02 3.070903629553199763e-03 1.063822788244745202e-02 3.070903629553199763e-03 2.077648591787515341e-03 4.229702213864684757e-03 1.063822788244745202e-02 4.229702213864684757e-03 1.081446937563501805e-02
7.967604716155400266e-03 1.623815980226291870e-03 -4.606664399031530806e-03 1.623815980226291870e-03 -1.176742298897487556e-02 1.059164125833185997e-02 -4.606664399031530806e-03 1.059164125833185997e-02 -4.969764192429788896e-03
-1.746582719826940064e-02 3.676954165676464374e-03 -6.461815673499559168e-03 3.676954165676464374e-03 -1.792809833016882279e-02 1.665234634785653527e-05 -6.461815673499559168e-03 1.665234634785653527e-05 -1.861405890763076498e-02
-1.598452983742353062e-02 -1.231284350544930954e-02 4.129114052791951067e-03 -1.231284350544930954e-02 -2.174405714558783065e-02 -4.975593761953364495e-03 4.129114052791951067e-03 -4.975593761953364495e-03 -2.051472326664473267e-02
-1.319217227714024505e-02 8.035818169392177062e-04 5.659513365931147059e-03 8.035818169392177062e-04 -1.969789072583126924e-02 -3.714234699685364620e-03 5.659513365931147059e-03 -3.714234699685364620e-03 -2.105171150429010346e-02
-3.589991219025532362e-03 -3.245684609605308489e-03 1.197264380903391608e-02 -3.245684609605308489e-03 -7.195018233535317026e-03 -1.148199877664823378e-02 1.197264380903391608e-02 -1.148199877664823378e-02 -9.160756566695746686e-03
-6.048989776895388575e-03 3.711638231888997330e-04 6.102991313852531088e-03 3.711638231888997330e-04 -2.909640509965928309e-02 -1.384570821469323018e-02 6.102991313852531088e-03 -1.384570821469323018e-02 5.453936779851930802e-03
-9.471546272109977738e-03 -6.650689981157912288e-03 -3.253885952596719151e-03 -6.650689981157912288e-03 -9.803731870807736240e-03 -7.517023930848760983e-04 -3.253885952596719151e-03 -7.517023930848760983e-04 -1.004138981379399352e-02
-5.225622376027120979e-03 9.149640438942547790e-03 7.246604306460743307e-03 9.149640438942547790e-03 1.277010894702976761e-02 1.016054022300710499e-02 7.246604306460743307e-03 1.016054022300710499e-02 -9.484484920527933016e-03
-4.788716737215293305e-03 -6.903071644172127305e-03 1.829885645526453588e-04 -6.903071644172127305e-03 -7.195736007084794009e-03 -1.681832680004114594e-02 1.829885645526453588e-04 -1.681832680004114594e-02 2.386597052009610878e-03
-6.086576144851457877e-03 -1.206232181215460830e-02 5.316948137557044908e-03 -1.206232181215460830e-02 -2.621078066850793340e-03 5.045392558508116597e-03 5.316948137557044908e-03 5.045392558508116597e-03 -1.753505801749370013e-02
-2.999864020984221308e-02 4.396837345237587444e-03 1.023622476266756488e-02 4.396837345237587444e-03 7.824917576028582282e-04 -4.095172726165397133e-03 1.023622476266756488e-02 -4.095172726165397133e-03 -2.581167985047157915e-02
7.586023814235400356e-03 1.071327578817707522e-02 3.663834513493857605e-03 1.071327578817707522e-02 -2.080750621823079707e-03 1.208011635467249982e-02 3.663834513493857605e-03 1.208011635467249982e-02 -2.642767311063237961e-03
-1.152143263130556497e-02 1.031682137001009580e-02 6.270032822588544191e-04 1.031682137001009580e-02 -5.826873191632581973e-03 -4.454689893325399072e-04 6.270032822588544191e-04 -4.454689893325399072e-04 -9.800979365283221667e-03
-6.057147429322918934e-03 -3.123688072230793727e-03 6.311301680928884522e-03 -3.123688072230793727e-03 -1.658621755866779984e-02 5.174005095556067149e-03 6.311301680928884522e-03 5.174005095556067149e-03 2.046366148048588563e-03
-1.062765476598820716e-02 3.624094824889358656e-03 -1.104235311533014298e-03 3.624094824889358656e-03 -1.668940842904602720e-02 2.539451610502491737e-03 -1.104235311533014298e-03 2.539451610502491737e-03 -2.486187819924029138e-02
-2.881973148312713152e-03 2.521538479311207295e-03 3.363855101885655959e-03 2.521538479311207295e-03 -8.115921697513763661e-03 7.365579953418329232e-03 3.363855101885655959e-03 7.365579953418329232e-03 -9.968794821150844809e-03
-1.205719753316225780e-02 2.890954679944859364e-03 3.097423801829077717e-03 2.890954679944859364e-03 -9.503003478104428761e-03 -1.581192714405635271e-03 3.097423801829077717e-03 -1.581192714405635271e-03 -1.652020111664333213e-02
-1.902365170250773160e-02 -7.478170536540137969e-03 8.363328877754649948e-03 -7.478170536540137969e-03 -2.435366331866524806e-02 9.792004075160200965e-03 8.363328877754649948e-03 9.792004075160200965e-03 -2.056217746052882780e-02
-5.633636069095236502e-03 4.086390922825279375e-03 -8.371236869817144308e-03 4.086390922825279375e-03 -1.337124117396183698e-02 -3.845137870582514272e-03 -8.371236869817144308e-03 -3.845137870582514272e-03 -2.414087778954563876e-02
1.088288255716382720e-03 1.779410561225435632e-03 -4.500084389197947857e-03 1.779410561225435632e-03 3.590552954846862061e-03 -7.951576520720130339e-03 -4.500084389197947857e-03 -7.951576520720130339e-03 -5.843837613436732130e-03
-6.743120489803118220e-03 3.974193554778402034e-03 6.741079516318953168e-04 3.974193554778402034e-03 -8.008280631128780747e-03 9.853158381575607798e-04 6.741079516318953168e-04 9.853158381575607798e-04 -4.128383796224222198e-03
-2.381396002455012095e-02 -5.376673138382623285e-03 8.054979602408638903e-03 -5.376673138382623285e-03 7.428332086169960003e-04 1.221978884589151534e-02 8.054979602408638903e-03 1.221978884589151534e-02 -7.025380257002937284e-04