-3.006229131200000120e+04
-3.006256769200000053e+04
-3.005697716700000092e+04
-3.006287925600000017e+04
-3.006194461500000034e+04
-3.006082345699999860e+04
-3.006349281999999948e+04
-3.006129409999999916e+04
-3.006187826599999971e+04
-3.005861800299999959e+04
-3.005907011799999964e+04
-3.005728784499999892e+04
-3.005869709199999852e+04
-3.005748849600000176e+04
-3.005837469100000089e+04
-3.006106932600000073e+04
-3.006305316500000117e+04
-3.005896229600000152e+04
-3.006250537299999996e+04
-3.006250835799999913e+04
-3.006364343699999881e+04
-3.006151498100000026e+04
-3.005620918700000038e+04
-3.005694241799999872e+04
-3.005774942799999917e+04
-3.006054276100000061e+04
-3.005656324999999924e+04
-3.006019529600000169e+04
-3.006358224300000074e+04
-3.005908036599999832e+04
-3.005340225999999893e+04
-3.005895581600000151e+04
-3.005866064099999858e+04
-3.005858233599999949e+04
-3.006001231199999893e+04
-3.006360908500000005e+04
-3.005967519299999913e+04
-3.006300753899999836e+04
-3.005970300900000075e+04
-3.005967387500000041e+04
-3.006317530899999838e+04
-3.006168421600000147e+04
-3.005954327499999999e+04
-3.006002678699999888e+04
-3.006286379799999850e+04
-3.006312482100000125e+04
-3.006444989899999928e+04
-3.006035238400000162e+04
-3.006243974000000162e+04
-3.006029604900000049e+04
-3.006044052200000078e+04
-3.005691404400000101e+04
-3.005319865199999913e+04
-3.005743699099999867e+04
-3.005776706199999899e+04
-3.005969127899999876e+04
-3.005995697600000130e+04
-3.006054462699999931e+04
-3.006053612799999974e+04
-3.005798989200000142e+04
-3.006281592699999965e+04
-3.005755098899999939e+04
-3.006345693699999902e+04
-3.006105795900000157e+04
-3.006180405999999857e+04
-3.005604962700000033e+04
-3.005890597300000081e+04
-3.006141237399999955e+04
-3.006214946899999995e+04
-3.006335851199999888e+04
-3.005904259000000093e+04
-3.006261355800000092e+04
-3.006274746900000173e+04
-3.005793658499999947e+04
-3.006044095599999855e+04
-3.006483325799999875e+04
-3.005652452800000174e+04
-3.006296709700000065e+04
-3.006430529799999931e+04
-3.005912272799999846e+04
-3.006408336100000088e+04
-3.006046119900000122e+04
-3.005983673500000077e+04
-3.006445967300000120e+04
-3.005754393599999821e+04
-3.006371632500000123e+04
-3.006587430899999890e+04
-3.005623591400000078e+04
-3.006394601200000034e+04
-3.006139081000000078e+04
-3.006325137600000016e+04
-3.006164132199999949e+04
-3.006103480100000161e+04
-3.005799644400000034e+04
-3.006359728499999983e+04
-3.005996229999999923e+04
-3.005963806200000181e+04
-3.006376239599999826e+04
-3.005762050599999930e+04
-3.006336939899999925e+04
-3.005760726799999975e+04
-3.006311488800000006e+04
-3.005818272799999977e+04
-3.005911918399999922e+04
-3.006304607400000168e+04
-3.006366824400000041e+04
-3.006048100799999884e+04
-3.006302607999999964e+04
-3.005778779399999985e+04
-3.006134079399999973e+04
-3.006199392499999885e+04
-3.005887932000000001e+04
-3.005779979699999967e+04
-3.006277089300000080e+04
-3.005924759800000174e+04
-3.005872997499999838e+04
-3.006043220500000098e+04
-3.005798990300000150e+04
-3.006380182200000127e+04
-3.006111243800000011e+04
-3.005723827499999970e+04
-3.005804187299999830e+04
-3.006095925899999929e+04
-3.005945401700000002e+04
-3.005958380699999907e+04
-3.006316557399999874e+04
-3.006322921199999837e+04
-3.005734399299999859e+04
-3.006052465700000175e+04
-3.006151822000000175e+04
-3.006353098300000056e+04
-3.006278449800000089e+04
-3.006069072400000005e+04
-3.005878294000000096e+04
-3.006166953500000091e+04
-3.005940619399999923e+04
-3.006037756900000022e+04
-3.006054477599999882e+04
-3.006128024899999946e+04
-3.005854636200000095e+04
-3.006052014200000121e+04
-3.006240347100000145e+04
-3.005706479000000036e+04
-3.006345513299999948e+04
-3.006110473999999886e+04
-3.005719501500000115e+04
-3.005893867400000090e+04
-3.005959107500000027e+04
-3.005831447399999888e+04
-3.005906946299999981e+04
-3.006132979799999885e+04
-3.006450095399999918e+04
-3.005828256500000134e+04
-3.005994665900000109e+04
-3.006051461900000140e+04
-3.005780473300000085e+04
-3.006028367399999843e+04
-3.006085510799999975e+04
-3.006201504900000145e+04
-3.006594170700000177e+04
-3.006171733699999822e+04
-3.006196430099999998e+04
-3.006424609499999860e+04
-3.005896484200000123e+04
-3.005611320699999851e+04
-3.006130544899999950e+04
-3.006339941299999919e+04
-3.006054474800000025e+04
-3.006284071599999879e+04
-3.005739178000000175e+04
-3.005941376600000149e+04
-3.006003820600000108e+04
-3.006039979300000050e+04
-3.005857843399999911e+04
-3.005934707300000082e+04
-3.005880841599999985e+04
-3.006045858600000065e+04
-3.005909908999999971e+04
-3.006233896100000129e+04
-3.005845226800000091e+04
-3.005998928199999864e+04
-3.006185822600000029e+04
-3.005682924700000149e+04
-3.006014403999999922e+04
-3.006019168500000160e+04
-3.005830406999999832e+04
-3.006153461800000150e+04
-3.005778860300000088e+04
-3.006079111800000101e+04
-3.006029087499999878e+04
-3.006535718800000177e+04
-3.006277248300000065e+04
-3.006287391600000046e+04
-3.006276470300000074e+04
-3.006616516000000047e+04
-3.006117614500000127e+04
-3.005858205599999928e+04
-3.006323751199999970e+04
-3.006018963499999882e+04
-3.006063070599999992e+04
-3.005483950700000059e+04
-3.006140509499999825e+04
-3.006389458400000149e+04
-3.006400945000000138e+04
-3.006524660299999960e+04
-3.006224469799999861e+04
-3.006395044699999926e+04
-3.006240704399999959e+04
-3.006445612299999993e+04
-3.006106879100000151e+04
-3.005920704199999818e+04
-3.006288026299999910e+04
-3.005815056399999958e+04
-3.006092830400000094e+04
-3.006176196200000049e+04
-3.005842231600000014e+04
-3.006095918299999903e+04
-3.005864531899999929e+04
-3.006381319300000177e+04
-3.005673055999999997e+04
-3.005811924599999838e+04
-3.006248856700000033e+04
-3.005307637999999861e+04
-3.005963581200000044e+04
-3.006020039199999883e+04
-3.006323359500000151e+04
-3.006207930800000031e+04
-3.006317757799999890e+04
-3.005842554200000086e+04
-3.006138962600000013e+04
-3.005710290600000008e+04
-3.006181081999999878e+04
-3.006139648899999884e+04
-3.006261542700000064e+04
-3.005634118700000181e+04
-3.006345071399999870e+04
-3.006042981800000052e+04
-3.005791864100000021e+04
-3.006208912799999962e+04
-3.006000600800000029e+04
-3.006128961300000083e+04
-3.006026781399999891e+04
-3.005880515899999955e+04
-3.006326758799999880e+04
-3.005839398300000175e+04
-3.005920229200000176e+04
-3.006161616499999946e+04
-3.006453462099999888e+04
-3.005882054000000062e+04
-3.005953262900000118e+04
-3.006070248400000128e+04
-3.006580328999999983e+04
-3.005940090499999860e+04
-3.006281699899999876e+04
-3.006361447499999849e+04
-3.005690576199999850e+04
-3.006108359800000107e+04
-3.006070496099999946e+04
-3.006208332199999859e+04
-3.006035697499999878e+04
-3.006305266699999993e+04
-3.006229750100000092e+04
-3.006233504499999981e+04
-3.006200386499999877e+04
-3.005978496200000154e+04
-3.005927359300000171e+04
-3.006229388000000108e+04
-3.006106269800000155e+04
-3.005474903800000175e+04
-3.006617995299999893e+04
-3.006130602799999906e+04
-3.005753983800000060e+04
-3.006012227400000120e+04
-3.006114311299999827e+04
-3.005996379299999899e+04
-3.005856269299999985e+04
-3.006004482099999950e+04
-3.005900975599999947e+04
-3.006167346700000053e+04
-3.006283700400000089e+04
-3.006099050599999828e+04
-3.006186952999999994e+04
-3.006122182999999859e+04
-3.006290253400000074e+04
-3.006436391000000003e+04
-3.006033305100000143e+04
-3.006408110899999883e+04
-3.005998079800000050e+04
-3.006275409299999956e+04
-3.006135696200000166e+04
-3.005700856700000077e+04
-3.005916161600000123e+04
-3.006138069099999848e+04
-3.006095472099999824e+04
-3.005802563400000145e+04
-3.006068787700000030e+04
-3.005881425600000148e+04
-3.005961161200000060e+04
-3.006252814299999955e+04
-3.006158007200000065e+04
-3.006110051000000021e+04
-3.005783791199999905e+04
-3.006165320200000133e+04
-3.005745755099999951e+04
-3.005768705100000079e+04
-3.006229657800000132e+04
-3.006390027499999997e+04
-3.005486489699999947e+04
-3.006065991600000052e+04
-3.006012575600000127e+04
-3.006040332900000067e+04
-3.006245670299999983e+04
-3.005959255299999859e+04
-3.005798842900000091e+04
-3.005967707599999994e+04
-3.006166117899999881e+04
-3.006154571099999885e+04
-3.006454244100000142e+04
-3.006197495300000082e+04
-3.005814356300000145e+04
-3.005811562300000151e+04
-3.005921182899999985e+04
-3.005839399599999888e+04
-3.006062037699999928e+04
-3.006458363599999939e+04
-3.005942108400000143e+04
-3.006217183899999873e+04
-3.006616242399999828e+04
-3.006330445699999837e+04
-3.006081032799999957e+04
-3.006324791299999924e+04
-3.006177142299999832e+04
-3.005752642800000103e+04
-3.006000452900000164e+04
-3.006033082199999990e+04
-3.006126707099999840e+04
-3.006227921000000060e+04
-3.006267507900000055e+04
-3.005761083800000051e+04
-3.006328403199999957e+04
-3.006440899699999864e+04
-3.006096818500000154e+04
-3.005677985400000034e+04
-3.006395465400000103e+04
-3.006247430000000168e+04
-3.006023679099999936e+04
-3.005671268200000122e+04
-3.006148570299999847e+04
-3.006390122300000075e+04
-3.005811514600000010e+04
-3.005901952700000038e+04
-3.005701999100000103e+04
-3.006280261999999857e+04
-3.006258488500000021e+04
-3.005773866600000110e+04
-3.006231162799999947e+04
-3.006152790399999867e+04
-3.006022032200000103e+04
-3.005744135499999902e+04
-3.006020114499999909e+04
-3.006016025699999955e+04
-3.005811146999999983e+04
-3.006027306699999826e+04
-3.005948886299999867e+04
-3.006261292300000059e+04
-3.006356728600000133e+04
-3.006274137400000109e+04
-3.005566064900000129e+04
-3.006147096299999976e+04
-3.006286479999999938e+04
-3.006149133100000108e+04
-3.006106916899999851e+04
-3.005871624000000156e+04
-3.006353364299999885e+04
-3.005981816299999991e+04
-3.006381484500000079e+04
-3.006225631399999838e+04
-3.005434043400000155e+04
-3.005556491900000037e+04
-3.006453117900000143e+04
-3.006436794300000111e+04
-3.006258935600000041e+04
-3.006411937799999941e+04
-3.005778085600000122e+04
-3.005804204400000162e+04
-3.006080983900000138e+04
-3.006011951799999952e+04
-3.006068958700000076e+04
-3.005659116699999868e+04
-3.006313235799999893e+04
-3.006231239999999889e+04
-3.005713105899999937e+04
-3.006022414700000081e+04
-3.005946845300000132e+04
-3.005966462699999829e+04
-3.005722872500000085e+04
-3.006010656699999890e+04
-3.005978194499999881e+04
-3.006061512199999925e+04
-3.005882984999999826e+04
-3.006071308800000043e+04
-3.006075395399999979e+04
-3.005862479099999837e+04
-3.006241262300000017e+04
-3.006416605400000117e+04
-3.006149336699999913e+04
-3.006402693100000033e+04
-3.005991847100000086e+04
-3.006045678000000044e+04
-3.006325096199999825e+04
-3.006109907599999860e+04
-3.006085283200000049e+04
-3.005641470800000025e+04
-3.006055921200000012e+04
-3.006178901200000109e+04
-3.005878844599999866e+04
-3.006346201099999962e+04
-3.005608038700000179e+04
-3.006209718900000007e+04
-3.005880313999999998e+04
-3.005804623999999967e+04
-3.005886898799999835e+04
-3.005621226899999965e+04
-3.006505453699999998e+04
-3.006085874799999874e+04
-3.005946159600000101e+04
-3.006020526899999822e+04
-3.005305856299999868e+04
-3.006098657100000128e+04
-3.005888064899999881e+04
-3.006300333099999989e+04
-3.005959923699999854e+04
-3.006116697399999975e+04
-3.005507084599999871e+04
-3.006155358300000080e+04
-3.006075875399999859e+04
-3.006382910199999969e+04
-3.006263788900000145e+04
-3.005999969799999963e+04
-3.005793531100000109e+04
-3.005822735900000043e+04
-3.005987793700000111e+04
-3.006086465799999860e+04
-3.006265388499999972e+04
-3.006124990500000058e+04
-3.005855695199999900e+04
-3.006075395099999878e+04
-3.006381626799999867e+04
-3.005841467600000033e+04
-3.006136013399999865e+04
-3.006243508700000166e+04
-3.006240437599999859e+04
-3.005957899499999985e+04
-3.006242251200000101e+04
-3.005889084100000036e+04
-3.005887962200000038e+04
-3.006138114000000132e+04
-3.005861032699999851e+04
-3.006152620799999931e+04
-3.006037480900000082e+04
-3.006218726899999820e+04
-3.006007077900000149e+04
-3.005999048699999912e+04
-3.006302991699999984e+04
-3.006290514299999995e+04
-3.005977190300000075e+04
-3.005935864800000127e+04
-3.006180738700000074e+04
-3.006354017999999996e+04
-3.006269442999999956e+04
-3.005786096700000053e+04
-3.005894300199999998e+04
-3.006064711800000077e+04
-3.006288456999999835e+04
-3.005471683800000028e+04
-3.005899503700000059e+04
-3.005864200799999890e+04
-3.005915956599999845e+04
-3.006069679000000178e+04
-3.005902529700000014e+04
-3.006604029599999922e+04
-3.005991698299999916e+04
-3.006311584800000128e+04
-3.005824259399999937e+04
-3.006308175399999891e+04
-3.006409215899999981e+04
-3.006236835100000098e+04
-3.006298213000000032e+04
-3.006152890399999887e+04
-3.005668138099999851e+04
-3.006080693999999858e+04
-3.005877356599999985e+04
-3.005877115300000150e+04
-3.006443901399999959e+04
-3.005676105299999836e+04
-3.006157532200000060e+04
-3.006049442300000010e+04
-3.005779087100000106e+04
-3.005964410499999940e+04
-3.006073953700000129e+04
-3.006088754600000175e+04
-3.005737515200000053e+04
-3.006093232899999930e+04
-3.005839236900000105e+04
-3.006357143200000064e+04
-3.005923887100000138e+04
-3.005972204899999997e+04
-3.006054748599999948e+04
-3.006123266099999819e+04
-3.005851434700000027e+04
-3.005871519199999966e+04
-3.005990053099999932e+04
-3.006425558000000092e+04
-3.006141393299999982e+04
-3.005857679400000052e+04
-3.005921569200000158e+04
-3.006134795899999881e+04
-3.006191361400000096e+04
-3.006092031599999973e+04
-3.005891553900000144e+04
-3.005972380600000179e+04
-3.006004191500000161e+04
-3.005632258699999875e+04
-3.006298060700000133e+04
-3.006566753500000050e+04
-3.006115113900000142e+04
-3.006328464900000108e+04
-3.006461160000000018e+04
-3.006198418699999820e+04
-3.005954104699999880e+04
-3.006115900500000134e+04
-3.006105343400000129e+04
-3.006157926199999929e+04
-3.005995672399999967e+04
-3.006245375499999864e+04
-3.005901100299999962e+04
-3.006281070600000021e+04
-3.005996085999999923e+04
-3.005854307899999912e+04
-3.006311075899999923e+04
-3.006133312600000136e+04
-3.005930189299999984e+04
-3.006208833800000139e+04
-3.006008387199999925e+04
-3.006108502299999964e+04
-3.005666989000000103e+04
-3.006143397099999856e+04
-3.005990462900000057e+04
-3.005821354799999972e+04
-3.006339202500000101e+04
-3.005778254699999889e+04
-3.005905429899999945e+04
-3.006081904299999951e+04
-3.006045787700000074e+04
-3.006137864500000069e+04
-3.006046054599999843e+04
-3.005676155500000095e+04
-3.006151369200000045e+04
-3.006007972299999892e+04
-3.006116979899999933e+04
-3.006223153800000000e+04
-3.005849426899999889e+04
-3.005885351399999854e+04
-3.006269214400000055e+04
-3.006100944800000070e+04
-3.005971490099999937e+04
-3.005802337299999999e+04
-3.005773043899999902e+04
-3.006257104700000127e+04
-3.006307516300000134e+04
-3.006283997399999862e+04
-3.005928400999999940e+04
-3.006230221199999869e+04
-3.006206313500000033e+04
-3.006547816600000078e+04
-3.006215475900000092e+04
-3.006213472700000057e+04
-3.006111618900000030e+04
-3.006132082100000116e+04
-3.006127224800000113e+04
-3.006204160699999920e+04
-3.006146507900000142e+04
-3.006171599499999866e+04
-3.005973356100000092e+04
-3.006388357000000178e+04
-3.005816705300000103e+04
-3.006060597100000086e+04
-3.006122326800000155e+04
-3.006429702399999951e+04
-3.006153769399999874e+04
-3.005590670099999988e+04
-3.006181242299999940e+04
-3.006221237200000178e+04
-3.006123910999999862e+04
-3.005937142899999890e+04
-3.005576052999999956e+04
-3.005985015700000076e+04
-3.005648346400000082e+04
-3.005842168500000116e+04
-3.005659625900000174e+04
-3.005791260100000000e+04
-3.005888440999999875e+04
-3.005798533600000155e+04
-3.005788100199999826e+04
-3.006035305099999823e+04
-3.005708985100000064e+04
-3.006006251899999916e+04
-3.005945118500000171e+04
-3.006222095600000102e+04
-3.006301538000000073e+04
-3.006272818299999926e+04
-3.005705886000000100e+04
-3.005373928499999965e+04
-3.005902572100000179e+04
-3.005705056500000137e+04
-3.005904661900000065e+04
-3.006206596699999864e+04
-3.005869246800000110e+04
-3.006125759699999981e+04
-3.006014857800000027e+04
-3.005888019699999859e+04
-3.005924197899999854e+04
-3.005802924200000052e+04
-3.005851078100000086e+04
-3.006486213000000134e+04
-3.005838682699999845e+04
-3.006007144600000174e+04
-3.006082408999999825e+04
-3.006300578699999824e+04
-3.006007792699999845e+04
-3.006052184699999998e+04
-3.006035683499999868e+04
-3.006081376399999863e+04
-3.006038356099999874e+04
-3.006255969800000094e+04
-3.006262091299999884e+04
-3.006088493400000152e+04
-3.006360870100000102e+04
-3.006187293100000170e+04
-3.006171256200000062e+04
-3.005765795000000071e+04
-3.005723797700000068e+04
-3.006518580300000031e+04
-3.006176080799999909e+04
-3.005805843100000129e+04
-3.006606400500000018e+04
-3.006067449800000031e+04
-3.005402562100000068e+04
-3.005918978200000129e+04
-3.005996172700000170e+04
-3.006138728199999969e+04
-3.006115929600000163e+04
-3.006203527200000099e+04
-3.005987534800000140e+04
-3.006313380999999936e+04
-3.005745598299999983e+04
-3.006121560899999895e+04
-3.005748753099999885e+04
-3.006081086499999947e+04
-3.006361531499999910e+04
-3.006276173600000038e+04
-3.005957182800000010e+04
-3.005847396799999842e+04
-3.006235366599999907e+04
-3.006251160099999834e+04
-3.006206540799999857e+04
-3.006255107900000075e+04
-3.005798943399999916e+04
-3.005964679899999828e+04
-3.006264142899999933e+04
-3.006364711099999840e+04
-3.006135031199999867e+04
-3.005833337200000096e+04
-3.005870921299999827e+04
-3.006342633900000146e+04
-3.006446601899999951e+04
-3.005884378600000127e+04
-3.006236681699999826e+04
-3.006388224300000002e+04
-3.006391659300000174e+04
-3.005404389699999956e+04
-3.005943418699999893e+04
-3.005695832800000062e+04
-3.006336064999999871e+04
-3.006595943400000033e+04
-3.005903436299999885e+04
-3.005647592000000077e+04
-3.005485613100000046e+04
-3.006326502199999959e+04
-3.006024621399999887e+04
-3.005342842999999993e+04
-3.006104035700000168e+04
-3.006264231500000096e+04
-3.005493852999999945e+04
-3.005995270700000037e+04
-3.006405332400000043e+04
-3.006323688499999844e+04
-3.006081786400000055e+04
-3.005995731700000033e+04
-3.006188240999999834e+04
-3.006033635700000013e+04
-3.006064783900000111e+04
-3.006093745800000033e+04
-3.006015160699999979e+04
-3.005913222500000120e+04
-3.006016913199999908e+04
-3.006176695200000177e+04
-3.005740744199999972e+04
-3.005875479600000108e+04
-3.006098023599999942e+04
-3.006218559499999901e+04
-3.006358558800000174e+04
-3.005707708099999945e+04
-3.006326194699999905e+04
-3.006413830099999905e+04
-3.006176111500000115e+04
-3.005935197600000174e+04
-3.005686624700000175e+04
-3.005549705099999846e+04
-3.006305949500000133e+04
-3.006024380699999892e+04
-3.005596840099999827e+04
-3.006314623700000084e+04
-3.005863311400000021e+04
-3.006095394400000077e+04
-3.006150982500000100e+04
-3.006008719199999905e+04
-3.005730215899999894e+04
-3.005956888600000093e+04
-3.006386934499999916e+04
-3.005944213200000013e+04
-3.006387880399999995e+04
-3.006356114399999933e+04
-3.005778293299999859e+04
-3.006136785500000042e+04
-3.006165983599999890e+04
-3.005506282400000055e+04
-3.006187394199999835e+04
-3.005716807400000107e+04
-3.006336419899999964e+04
-3.006181943500000125e+04
-3.005987276399999973e+04
-3.006131278599999860e+04
-3.006077550500000143e+04
-3.006437327500000174e+04
-3.006118515599999955e+04
-3.005631842500000130e+04
-3.005924511899999925e+04
-3.006319991500000106e+04
-3.005843940999999904e+04
-3.005965407300000152e+04
-3.005918078199999945e+04
-3.006192864199999894e+04
-3.005936268500000006e+04
-3.006213875600000028e+04
-3.005960744300000079e+04
-3.005981032300000152e+04
-3.006183032200000162e+04
-3.006188640300000043e+04
-3.006236485499999981e+04
-3.006326409699999931e+04
-3.006289920300000085e+04
-3.006335580000000118e+04
-3.006272395400000096e+04
-3.006003707800000120e+04
-3.005910213300000032e+04
-3.006292285600000105e+04
-3.005860371099999975e+04
-3.006298941600000035e+04
-3.006004857099999936e+04
-3.005954358800000045e+04
-3.006154137899999841e+04
-3.005643938699999853e+04
-3.006178239200000098e+04
-3.005986093400000027e+04
-3.006049897100000089e+04
-3.006351576900000146e+04
-3.005954770300000018e+04
-3.006131883300000118e+04
-3.006017499300000054e+04
-3.006170272000000114e+04
-3.006150951400000122e+04
-3.005952204100000017e+04
-3.006225873000000138e+04
-3.005698919300000125e+04
-3.006139502400000129e+04
-3.005926991800000178e+04
-3.006442388299999948e+04
-3.006069981900000130e+04
-3.006335919300000023e+04
-3.006106549599999926e+04
-3.005688492799999949e+04
-3.006001380399999834e+04
-3.005686427299999923e+04
-3.005878394399999888e+04
-3.006043720599999870e+04
-3.006421200200000021e+04
-3.006418443100000150e+04
-3.005913092400000096e+04
-3.006004530299999897e+04
-3.005938798999999926e+04
-3.005907521999999881e+04
-3.006443235500000083e+04
-3.006158790800000133e+04
-3.006081502299999920e+04
-3.006338725899999918e+04
-3.005981990299999961e+04
-3.006110076599999957e+04
-3.006022817800000121e+04
-3.006109206400000039e+04
-3.006309300300000177e+04
-3.006182561200000055e+04
-3.005508014499999990e+04
-3.006189511900000070e+04
-3.006153601899999921e+04
-3.006003693399999975e+04
-3.006233278100000098e+04
-3.006327639999999883e+04
-3.006162902000000031e+04
-3.006305582399999912e+04
-3.006199212299999999e+04
-3.006201617700000133e+04
-3.006108947600000101e+04
-3.005677057799999966e+04
-3.006232159200000024e+04
-3.006261084299999857e+04
-3.006033881900000051e+04
-3.006016579400000046e+04
-3.005946402700000181e+04
-3.006099781699999949e+04
-3.005815614899999855e+04
-3.005852514399999927e+04
-3.005924195300000065e+04
-3.006211885999999868e+04
-3.006408881499999916e+04
-3.005729258800000025e+04
-3.006335374900000170e+04
-3.005643989900000088e+04
-3.006119791600000099e+04
-3.005911525899999833e+04
-3.006181260699999984e+04
-3.005490510200000062e+04
-3.006195535100000052e+04
-3.006157718699999896e+04
-3.005882135500000004e+04
-3.006309244699999908e+04
-3.005698435600000084e+04
-3.006186613199999920e+04
-3.005444941599999947e+04
-3.006169140600000173e+04
-3.005957735300000058e+04
-3.006548123699999996e+04
-3.006134875900000043e+04
-3.005944461800000136e+04
-3.006343644700000004e+04
-3.006009131799999886e+04
-3.005733042399999977e+04
-3.005386322199999995e+04
-3.006170090200000050e+04
-3.005874076300000161e+04
-3.006316021900000123e+04
-3.006208541799999875e+04
-3.006088894000000073e+04
-3.006131106400000135e+04
-3.005951575500000035e+04
-3.005844083699999828e+04
-3.006197568300000057e+04
-3.005614581800000087e+04
-3.006102145400000154e+04
-3.006384042599999884e+04
-3.006263131200000134e+04
-3.005949427899999864e+04
-3.006232209399999920e+04
-3.006022191899999962e+04
-3.006187512100000095e+04
-3.005804264899999907e+04
-3.006116015400000106e+04
-3.006169083400000090e+04
-3.006137050799999997e+04
-3.006044950999999855e+04
-3.006155303500000082e+04
-3.005657901900000070e+04
-3.006239103700000123e+04
-3.005543708899999910e+04
-3.005820906800000012e+04
-3.005891747599999871e+04
-3.005848187899999903e+04
-3.006214273300000059e+04
-3.005705605999999898e+04
-3.006040594200000123e+04
-3.006071574699999837e+04
-3.005617265699999916e+04
-3.006226762500000041e+04
-3.006203096500000174e+04
-3.005837038799999937e+04
-3.006440254999999888e+04
-3.005909098299999823e+04
-3.005999636100000134e+04
-3.005971556699999928e+04
-3.005656347299999834e+04
-3.006198723500000051e+04
-3.006386491100000057e+04
-3.005887036900000021e+04
-3.006033311200000026e+04
-3.005939432899999883e+04
-3.006062892899999861e+04
-3.006099580200000128e+04
-3.006184173500000179e+04
-3.005797930300000007e+04
-3.006174348499999905e+04
-3.006273151100000177e+04
-3.006096030400000018e+04
-3.006145788499999981e+04
-3.006174285900000177e+04
-3.006542010600000140e+04
-3.006232437600000048e+04
-3.005888836699999956e+04
-3.006089592700000139e+04
-3.006019163900000058e+04
-3.006110269300000073e+04
-3.006031836299999850e+04
-3.006234348500000124e+04
-3.005864295900000070e+04
-3.005890870899999936e+04
-3.005877871500000037e+04
-3.005842552499999874e+04
-3.005661137500000041e+04
-3.006151390900000115e+04
-3.006205768800000078e+04
-3.005640061499999865e+04
-3.006153182699999888e+04
-3.006015596200000073e+04
-3.005893088999999964e+04
-3.006233718900000167e+04
-3.005822140299999955e+04
-3.005916452199999912e+04
-3.006221944399999848e+04
-3.005772640799999863e+04
-3.005808796000000075e+04
-3.005763738100000046e+04
-3.005929913600000145e+04
-3.006134106400000019e+04
-3.006268806499999846e+04
-3.005841049500000008e+04
-3.006203531700000167e+04
-3.006126271800000177e+04
-3.006375046500000099e+04
-3.006226569699999891e+04
-3.006210934600000110e+04
-3.005964664999999877e+04
-3.006417996700000003e+04
-3.006143543100000170e+04
-3.005978374700000131e+04
-3.005952512099999876e+04
-3.006285683599999902e+04
-3.005976595599999928e+04
-3.006486826400000064e+04
-3.005884476999999970e+04
-3.005810568799999965e+04
-3.006027875499999936e+04
-3.005759158699999898e+04
-3.006651377900000080e+04
-3.005967712799999936e+04
-3.005817607900000075e+04
-3.006459339000000182e+04
-3.006259510999999839e+04
-3.006251593299999877e+04
-3.006211477100000047e+04
-3.005932761300000129e+04
-3.006018035700000110e+04
-3.005882085000000006e+04
-3.006102787900000112e+04
-3.006180584799999997e+04
-3.005968545599999925e+04
-3.006300663999999961e+04
-3.005856723100000090e+04
-3.005988577100000111e+04
-3.006030182200000127e+04
-3.006161170499999935e+04
-3.005863124999999854e+04
-3.006061546799999996e+04
-3.006028505800000130e+04
-3.005996647899999880e+04
-3.006305953500000032e+04
-3.005852358499999900e+04
-3.005895338600000105e+04
-3.006078010699999868e+04
-3.006196643000000040e+04
-3.006053105299999879e+04
-3.005758277799999996e+04
-3.006168750000000000e+04
-3.005883994399999938e+04
-3.006394504199999938e+04
-3.006411871400000018e+04
-3.005940178100000048e+04
-3.006131022899999880e+04
-3.006302028000000064e+04
-3.006194462099999873e+04
-3.006077813700000115e+04
-3.005947002900000007e+04
-3.005882140000000072e+04
-3.005697384700000111e+04
-3.006214795500000037e+04
-3.005814582499999960e+04
-3.005889850700000170e+04
-3.006119629999999961e+04
-3.006194692099999884e+04
-3.006364051200000176e+04
-3.006462165499999901e+04
-3.006081580899999972e+04
-3.006174988099999973e+04
-3.005959871700000076e+04
-3.006339294700000028e+04
-3.006037439699999959e+04
-3.006075223499999993e+04
-3.005984868899999856e+04
-3.005948887499999910e+04
-3.006149809200000163e+04
-3.006314343500000177e+04
-3.006298290800000177e+04
-3.005471170500000153e+04
-3.006101806199999919e+04
-3.006076894299999913e+04
-3.006110150000000067e+04
-3.006113258100000166e+04
-3.006234755500000028e+04
-3.006125265999999829e+04
-3.006526848600000085e+04
-3.006031956599999830e+04
-3.006021907600000122e+04
-3.006167962500000067e+04
-3.006184459000000061e+04
-3.005817299500000081e+04
-3.006135531800000172e+04
-3.006145890299999883e+04
-3.006143522200000007e+04
-3.006159016200000042e+04
-3.006272984300000098e+04
-3.006155734600000142e+04
-3.006463055299999905e+04
-3.006127072400000179e+04
-3.006112975100000040e+04
-3.005947559700000056e+04
-3.006214252199999828e+04
-3.006189876899999945e+04
-3.006106328800000119e+04
-3.005994227699999828e+04
-3.005852138299999933e+04
-3.006154151199999978e+04
-3.005964124100000117e+04
-3.006126762999999846e+04
-3.005823029300000053e+04
-3.005966033899999820e+04
-3.006125023299999884e+04
-3.006107200500000181e+04
-3.006183195400000113e+04
-3.005908254600000146e+04
-3.005987799799999993e+04
-3.005885609499999919e+04
-3.005707556299999851e+04
-3.006311231899999984e+04
-3.006017207000000053e+04
-3.005928900799999974e+04
-3.005727937200000088e+04
-3.005949552799999947e+04
-3.006399172199999884e+04
-3.006127000499999849e+04
-3.006137576999999874e+04
-3.006449261599999954e+04
-3.005956987500000105e+04
-3.006123570499999914e+04
-3.006258903199999986e+04
-3.005935497200000100e+04
-3.006084727600000042e+04
-3.005959781899999871e+04
-3.006265478000000076e+04
-3.005949057900000116e+04
-3.006181207400000130e+04
-3.006286784199999965e+04
-3.005972163999999975e+04
-3.005569161600000007e+04
-3.006223832300000140e+04
-3.006106410600000163e+04
-3.006567047599999933e+04
-3.006110635600000023e+04
-3.006229354500000045e+04
-3.005634349700000166e+04
-3.006279315399999905e+04
-3.005807795500000066e+04
-3.005895079899999837e+04
-3.006442468999999983e+04
-3.006280963500000144e+04
-3.005872449200000119e+04
-3.006021729200000118e+04
-3.006203170500000124e+04
-3.006116785700000037e+04
-3.006009093500000017e+04
-3.006133779399999912e+04
-3.005904541899999822e+04
-3.006078714799999943e+04
-3.006161384199999884e+04
-3.006235131399999955e+04
-3.005985864999999831e+04
-3.006428018800000063e+04
-3.006143130100000053e+04
-3.006122507000000041e+04
-3.005770059400000173e+04
-3.006233120599999893e+04
-3.005995711799999845e+04
-3.005833014800000092e+04
-3.006230120399999942e+04
-3.005739381199999843e+04
-3.006303097599999819e+04
-3.005681952499999898e+04
-3.006566773699999976e+04
-3.006269947500000126e+04
-3.006108583400000134e+04
-3.005959006800000134e+04
-3.005954744999999821e+04
-3.005793013100000098e+04
-3.006278801300000123e+04
-3.006251786999999968e+04
-3.005716765899999882e+04
-3.006044942399999854e+04
-3.006573579999999856e+04
-3.005998883199999909e+04
-3.006316559100000086e+04
-3.005817778499999986e+04
-3.006164660899999944e+04
-3.005910026600000128e+04
-3.006176448299999902e+04
-3.006235556599999836e+04
-3.006324906600000031e+04
-3.006218560300000172e+04
-3.005813071599999967e+04
-3.006150217100000009e+04
-3.006189407600000050e+04
-3.006309621899999911e+04
-3.006457267800000045e+04
-3.005913141800000085e+04
-3.005561520400000154e+04
-3.005921888599999875e+04
-3.006215481799999907e+04
-3.006186155499999950e+04
-3.006126467899999989e+04
-3.006090784699999858e+04
-3.006062617799999862e+04
-3.005981289200000174e+04
-3.005931301099999837e+04
-3.005732093800000075e+04
-3.006487414899999931e+04
-3.005971218500000032e+04
-3.006368188500000178e+04