-4.657130000000000291e+04 1.003689999999999964e+04 3.667400000000000091e+03 1.003689999999999964e+04 -2.481270000000000073e+04 4.442810000000000400e+03 3.667400000000000091e+03 4.442810000000000400e+03 -3.943669999999999709e+04
-2.655029999999999927e+04 -3.608409999999999854e+03 1.699829999999999927e+03 -3.608409999999999854e+03 -9.017870000000000800e+03 -5.855489999999999782e+03 1.699829999999999927e+03 -5.855489999999999782e+03 -2.174699999999999818e+03
-2.072809999999999854e+04 -1.613769999999999982e+03 -5.440049999999999955e+02 -1.613769999999999982e+03 -2.846279999999999927e+04 1.174170000000000073e+04 -5.440049999999999955e+02 1.174170000000000073e+04 -3.194700000000000000e+04
-5.140159999999999854e+04 5.097439999999999600e+03 1.232029999999999973e+03 5.097439999999999600e+03 -5.352520000000000437e+03 4.269659999999999854e+03 1.232029999999999973e+03 4.269659999999999854e+03 -2.069320000000000073e+04
-3.156859999999999854e+04 3.647400000000000091e+03 -1.867240000000000009e+03 3.647400000000000091e+03 -6.020689999999999600e+03 4.703930000000000291e+03 -1.867240000000000009e+03 4.703930000000000291e+03 -4.116670000000000073e+03
-2.996220000000000073e+04 7.147680000000000291e+03 1.150470000000000073e+04 7.147680000000000291e+03 -2.580170000000000073e+04 -3.741840000000000146e+03 1.150470000000000073e+04 -3.741840000000000146e+03 -3.209009999999999854e+04
-4.644769999999999709e+04 -5.665569999999999709e+03 4.912079999999999927e+03 -5.665569999999999709e+03 -8.846340000000000146e+03 9.715750000000000000e+03 4.912079999999999927e+03 9.715750000000000000e+03 -1.249679999999999927e+04
-2.799300000000000000e+04 -2.532760000000000218e+03 -1.381339999999999861e+02 -2.532760000000000218e+03 -2.987629999999999927e+04 -9.551129999999999200e+03 -1.381339999999999861e+02 -9.551129999999999200e+03 -3.825250000000000000e+04
-2.518279999999999927e+04 -1.187160000000000082e+03 -5.398569999999999709e+03 -1.187160000000000082e+03 -2.580470000000000073e+04 -8.141989999999999782e+03 -5.398569999999999709e+03 -8.141989999999999782e+03 -2.776190000000000146e+04
-4.482869999999999709e+04 1.476450000000000000e+04 1.934619999999999891e+03 1.476450000000000000e+04 -3.169740000000000146e+04 -3.001000000000000156e+01 1.934619999999999891e+03 -3.001000000000000156e+01 -4.849859999999999854e+04
-3.993809999999999854e+04 7.355399999999999716e-01 3.385250000000000000e+03 7.355399999999999716e-01 -5.379209999999999854e+04 1.583180000000000064e+03 3.385250000000000000e+03 1.583180000000000064e+03 -4.077269999999999709e+04
-3.374250000000000000e+04 -1.264690000000000055e+03 1.161889999999999964e+04 -1.264690000000000055e+03 -2.407250000000000000e+04 -7.031319999999999709e+03 1.161889999999999964e+04 -7.031319999999999709e+03 -2.884329999999999927e+04
-2.777150000000000000e+04 -6.900539999999999964e+03 -5.915510000000000218e+03 -6.900539999999999964e+03 -3.661550000000000000e+04 -3.419079999999999927e+03 -5.915510000000000218e+03 -3.419079999999999927e+03 -4.198290000000000146e+04
-3.426380000000000291e+04 -3.559280000000000200e+03 6.603239999999999782e+03 -3.559280000000000200e+03 -3.709669999999999709e+04 -4.126090000000000146e+03 6.603239999999999782e+03 -4.126090000000000146e+03 -2.389840000000000146e+04
-1.025150000000000000e+04 3.916750000000000000e+03 -1.759740000000000146e+04 3.916750000000000000e+03 -6.967619999999999891e+03 -3.495730000000000018e+03 -1.759740000000000146e+04 -3.495730000000000018e+03 -3.099590000000000146e+04
-3.072809999999999854e+04 4.001190000000000055e+03 1.326220000000000073e+04 4.001190000000000055e+03 -1.238150000000000000e+04 -2.855070000000000164e+03 1.326220000000000073e+04 -2.855070000000000164e+03 -2.112379999999999927e+04
4.888399999999999636e+03 -9.778269999999999982e+02 1.783539999999999964e+03 -9.778269999999999982e+02 -2.653700000000000000e+04 -2.435230000000000018e+03 1.783539999999999964e+03 -2.435230000000000018e+03 -1.508300000000000000e+04
-2.459850000000000000e+04 -5.303239999999999554e+02 -4.099159999999999854e+03 -5.303239999999999554e+02 -1.954370000000000073e+04 -6.093949999999999818e+03 -4.099159999999999854e+03 -6.093949999999999818e+03 -4.242709999999999854e+04
-2.687240000000000146e+04 -2.984380000000000109e+03 2.908769999999999982e+03 -2.984380000000000109e+03 -1.565070000000000073e+04 -3.702269999999999982e+03 2.908769999999999982e+03 -3.702269999999999982e+03 -5.525670000000000073e+03
-1.944529999999999927e+04 -2.375789999999999964e+03 9.061849999999999739e+01 -2.375789999999999964e+03 -1.691590000000000146e+04 -3.758760000000000218e+03 9.061849999999999739e+01 -3.758760000000000218e+03 -3.924680000000000291e+04
-1.560039999999999964e+04 -6.461130000000000109e+03 -3.355239999999999782e+03 -6.461130000000000109e+03 -5.662630000000000109e+03 6.016279999999999745e+03 -3.355239999999999782e+03 6.016279999999999745e+03 -2.805890000000000146e+04
-4.905459999999999854e+04 1.102600000000000000e+04 4.793510000000000218e+03 1.102600000000000000e+04 -4.338830000000000291e+04 -4.741590000000000146e+03 4.793510000000000218e+03 -4.741590000000000146e+03 -2.389829999999999927e+04
-4.533040000000000146e+04 6.324170000000000300e+02 -7.261399999999999636e+03 6.324170000000000300e+02 -2.529040000000000146e+04 -1.619660000000000082e+02 -7.261399999999999636e+03 -1.619660000000000082e+02 -6.338500000000000000e+04
-3.556030000000000291e+04 -3.259030000000000200e+03 -1.334269999999999982e+03 -3.259030000000000200e+03 -2.725779999999999927e+04 4.752319999999999709e+03 -1.334269999999999982e+03 4.752319999999999709e+03 -3.176550000000000000e+04
-3.503259999999999854e+04 7.405420000000000300e+02 3.164590000000000146e+03 7.405420000000000300e+02 -4.459890000000000146e+04 -8.480040000000000873e+03 3.164590000000000146e+03 -8.480040000000000873e+03 -3.485469999999999709e+04
-4.053680000000000291e+04 -4.763949999999999818e+03 1.622779999999999927e+04 -4.763949999999999818e+03 -2.045150000000000000e+04 -8.925040000000000873e+03 1.622779999999999927e+04 -8.925040000000000873e+03 -2.816750000000000000e+04
-4.029600000000000000e+04 -7.621520000000000437e+03 5.980680000000000291e+03 -7.621520000000000437e+03 -3.401230000000000291e+04 3.352590000000000146e+02 5.980680000000000291e+03 3.352590000000000146e+02 -5.070900000000000000e+04
-4.235240000000000146e+04 -1.750590000000000046e+01 5.859899999999999636e+03 -1.750590000000000046e+01 -2.683040000000000146e+04 -1.558759999999999991e+03 5.859899999999999636e+03 -1.558759999999999991e+03 -3.606369999999999709e+04
-1.682559999999999854e+04 -6.243699999999999818e+03 -1.180689999999999964e+04 -6.243699999999999818e+03 -3.223170000000000073e+04 -6.392579999999999927e+03 -1.180689999999999964e+04 -6.392579999999999927e+03 -2.316240000000000146e+04
-3.759950000000000000e+04 1.360900000000000091e+03 -3.654599999999999909e+03 1.360900000000000091e+03 -1.755590000000000146e+04 -4.369250000000000000e+03 -3.654599999999999909e+03 -4.369250000000000000e+03 -3.741409999999999854e+04
-4.227400000000000000e+04 4.947090000000000146e+03 1.602479999999999927e+04 4.947090000000000146e+03 -4.671900000000000000e+04 -7.749500000000000000e+03 1.602479999999999927e+04 -7.749500000000000000e+03 -5.231340000000000146e+04
-4.674590000000000146e+04 6.149560000000000400e+03 2.322839999999999918e+02 6.149560000000000400e+03 -3.078129999999999927e+04 4.160210000000000150e+02 2.322839999999999918e+02 4.160210000000000150e+02 -2.897659999999999854e+04
-7.824970000000000255e+03 4.171539999999999964e+03 2.044069999999999936e+03 4.171539999999999964e+03 -1.911209999999999854e+04 -1.605989999999999964e+04 2.044069999999999936e+03 -1.605989999999999964e+04 -3.386030000000000291e+04
-3.592600000000000000e+04 -1.361029999999999927e+04 -1.704390000000000100e+03 -1.361029999999999927e+04 -4.066700000000000000e+04 -8.511670000000000300e+02 -1.704390000000000100e+03 -8.511670000000000300e+02 -3.594300000000000000e+04
-2.379459999999999854e+04 8.470040000000000873e+03 7.992380000000000564e+02 8.470040000000000873e+03 -9.756059999999999491e+03 1.787950000000000045e+03 7.992380000000000564e+02 1.787950000000000045e+03 -1.893440000000000146e+04
-1.521829999999999927e+04 -4.496939999999999600e+03 -7.358050000000000182e+03 -4.496939999999999600e+03 -2.014700000000000000e+04 -1.145689999999999964e+04 -7.358050000000000182e+03 -1.145689999999999964e+04 -7.225210000000000036e+03
-4.559580000000000291e+04 -4.078130000000000109e+03 3.375829999999999927e+03 -4.078130000000000109e+03 -3.693159999999999854e+04 -5.641439999999999600e+03 3.375829999999999927e+03 -5.641439999999999600e+03 -2.972209999999999854e+04
-1.652659999999999854e+04 -8.900030000000000655e+03 6.213250000000000000e+03 -8.900030000000000655e+03 -3.493960000000000036e+03 -1.354279999999999973e+03 6.213250000000000000e+03 -1.354279999999999973e+03 -9.504350000000000364e+03
-2.930629999999999927e+04 -7.062359999999999673e+03 5.308979999999999563e+03 -7.062359999999999673e+03 -2.767909999999999854e+04 6.952770000000000437e+03 5.308979999999999563e+03 6.952770000000000437e+03 -3.678580000000000291e+04
-5.163009999999999854e+04 -3.310519999999999982e+03 1.342860000000000036e+04 -3.310519999999999982e+03 -2.427800000000000000e+04 1.238050000000000000e+04 1.342860000000000036e+04 1.238050000000000000e+04 -3.305990000000000146e+04
-1.626350000000000000e+04 3.865260000000000218e+03 1.762190000000000146e+04 3.865260000000000218e+03 -1.383200000000000000e+04 -2.197789999999999964e+03 1.762190000000000146e+04 -2.197789999999999964e+03 -3.554980000000000291e+04
-2.081900000000000000e+04 -6.939970000000000255e+03 4.829560000000000400e+03 -6.939970000000000255e+03 -2.826970000000000073e+04 4.756590000000000146e+03 4.829560000000000400e+03 4.756590000000000146e+03 -2.228539999999999964e+03
-3.345130000000000291e+04 -1.166900000000000000e+04 4.170949999999999818e+03 -1.166900000000000000e+04 -2.691520000000000073e+04 1.114429999999999927e+04 4.170949999999999818e+03 1.114429999999999927e+04 -2.776400000000000000e+04
-9.032579999999999927e+03 4.928850000000000364e+03 1.023560000000000036e+04 4.928850000000000364e+03 -1.939470000000000073e+04 3.904250000000000114e+02 1.023560000000000036e+04 3.904250000000000114e+02 -1.951009999999999854e+04
-3.747440000000000146e+04 -4.046650000000000091e+03 -9.697799999999999272e+03 -4.046650000000000091e+03 -4.266740000000000146e+04 1.438000000000000000e+04 -9.697799999999999272e+03 1.438000000000000000e+04 -4.003990000000000146e+04
-2.568559999999999854e+04 -5.703970000000000255e+03 5.428579999999999927e+03 -5.703970000000000255e+03 -1.219029999999999927e+04 -3.269920000000000073e+03 5.428579999999999927e+03 -3.269920000000000073e+03 -2.244429999999999927e+04
-1.573360000000000036e+04 1.129160000000000036e+04 -1.363689999999999998e+02 1.129160000000000036e+04 -3.210090000000000146e+04 2.472889999999999873e+03 -1.363689999999999998e+02 2.472889999999999873e+03 -1.506400000000000000e+04
-1.274070000000000073e+04 4.632140000000000327e+03 1.007229999999999927e+04 4.632140000000000327e+03 -7.791130000000000109e+03 -1.124010000000000036e+04 1.007229999999999927e+04 -1.124010000000000036e+04 -1.556839999999999964e+04
-5.296150000000000000e+04 3.630480000000000018e+03 3.885120000000000005e+02 3.630480000000000018e+03 -3.638190000000000146e+04 7.394380000000000109e+03 3.885120000000000005e+02 7.394380000000000109e+03 -2.787490000000000146e+04
-1.428520000000000073e+04 3.365679999999999836e+03 2.122619999999999891e+03 3.365679999999999836e+03 -2.870429999999999927e+04 1.029019999999999982e+03 2.122619999999999891e+03 1.029019999999999982e+03 -2.404050000000000000e+04
1.767210000000000036e+03 -9.573639999999999418e+03 -4.323210000000000036e+03 -9.573639999999999418e+03 7.960010000000000218e+03 -2.924510000000000218e+02 -4.323210000000000036e+03 -2.924510000000000218e+02 -1.831829999999999927e+04
-2.341220000000000073e+04 1.182920000000000073e+04 -1.436610000000000036e+04 1.182920000000000073e+04 -3.589909999999999854e+04 2.011109999999999900e+03 -1.436610000000000036e+04 2.011109999999999900e+03 -3.400450000000000000e+04
-7.743600000000000000e+04 -2.486300000000000000e+04 3.744780000000000200e+03 -2.486300000000000000e+04 -4.181319999999999709e+04 7.537229999999999563e+03 3.744780000000000200e+03 7.537229999999999563e+03 -3.683200000000000000e+04
-4.712740000000000146e+04 4.259069999999999709e+03 1.227120000000000073e+04 4.259069999999999709e+03 -2.239700000000000000e+04 -2.643530000000000200e+03 1.227120000000000073e+04 -2.643530000000000200e+03 -1.129639999999999964e+04
-4.248430000000000291e+04 9.455069999999999709e+03 -2.817119999999999891e+02 9.455069999999999709e+03 -5.193019999999999709e+04 5.436380000000000109e+03 -2.817119999999999891e+02 5.436380000000000109e+03 -2.220950000000000000e+04
-1.945609999999999854e+04 1.368129999999999927e+04 1.869450000000000045e+03 1.368129999999999927e+04 -2.352990000000000146e+04 2.112179999999999836e+03 1.869450000000000045e+03 2.112179999999999836e+03 -2.061070000000000073e+04
-4.082559999999999854e+04 5.723380000000000109e+03 -1.093750000000000000e+04 5.723380000000000109e+03 -2.534670000000000073e+03 2.313269999999999982e+03 -1.093750000000000000e+04 2.313269999999999982e+03 -2.501450000000000000e+04
-4.029330000000000291e+04 1.666589999999999918e+03 3.992809999999999945e+03 1.666589999999999918e+03 -2.881109999999999854e+04 7.299350000000000364e+03 3.992809999999999945e+03 7.299350000000000364e+03 -1.407160000000000036e+04
-2.607090000000000146e+04 -2.716940000000000055e+03 1.556700000000000045e+03 -2.716940000000000055e+03 -3.089300000000000000e+04 8.040039999999999964e+03 1.556700000000000045e+03 8.040039999999999964e+03 -4.163259999999999854e+04
-6.750230000000000291e+04 -1.024750000000000000e+03 -9.438299999999999272e+03 -1.024750000000000000e+03 -3.227559999999999854e+04 -1.987079999999999927e+04 -9.438299999999999272e+03 -1.987079999999999927e+04 -3.870459999999999854e+04
-3.011870000000000073e+04 -1.061960000000000036e+04 -9.840200000000000728e+03 -1.061960000000000036e+04 -2.884290000000000146e+04 4.508270000000000437e+03 -9.840200000000000728e+03 4.508270000000000437e+03 -2.811620000000000073e+04
-3.887709999999999854e+04 -9.255889999999999418e+03 -6.637509999999999764e+02 -9.255889999999999418e+03 -5.348290000000000146e+04 3.048670000000000073e+03 -6.637509999999999764e+02 3.048670000000000073e+03 -2.508540000000000146e+04
-2.022690000000000146e+04 9.561139999999999418e+03 -1.506870000000000073e+04 9.561139999999999418e+03 -2.220609999999999854e+04 6.948939999999999600e+03 -1.506870000000000073e+04 6.948939999999999600e+03 -8.364559999999999491e+03
-9.122020000000000437e+03 1.200700000000000045e+03 -3.530889999999999873e+03 1.200700000000000045e+03 -2.301229999999999927e+04 -1.463279999999999973e+03 -3.530889999999999873e+03 -1.463279999999999973e+03 -2.861740000000000146e+04
-4.573750000000000000e+04 -1.866800000000000068e+02 2.158800000000000000e+04 -1.866800000000000068e+02 -3.075509999999999854e+04 -6.055550000000000182e+03 2.158800000000000000e+04 -6.055550000000000182e+03 -1.583289999999999964e+04
-4.209580000000000291e+04 -6.756079999999999927e+03 7.855420000000000073e+03 -6.756079999999999927e+03 -4.341800000000000000e+04 2.538639999999999873e+03 7.855420000000000073e+03 2.538639999999999873e+03 -3.745440000000000146e+04
-3.078850000000000000e+04 -5.279260000000000218e+03 -1.692100000000000000e+04 -5.279260000000000218e+03 -5.390259999999999854e+04 6.868180000000000291e+03 -1.692100000000000000e+04 6.868180000000000291e+03 -3.292969999999999709e+04
-2.954370000000000073e+04 3.885710000000000036e+03 -2.051570000000000164e+03 3.885710000000000036e+03 -1.768770000000000073e+04 -6.112779999999999745e+03 -2.051570000000000164e+03 -6.112779999999999745e+03 -2.807840000000000146e+04
-2.787950000000000000e+04 -7.051619999999999891e+03 3.679760000000000218e+03 -7.051619999999999891e+03 -1.359260000000000036e+04 6.893920000000000073e+03 3.679760000000000218e+03 6.893920000000000073e+03 -2.635979999999999927e+04
-2.484859999999999854e+04 -9.874040000000000873e+03 -1.024900000000000091e+03 -9.874040000000000873e+03 -3.566630000000000291e+04 1.016960000000000036e+03 -1.024900000000000091e+03 1.016960000000000036e+03 -1.952009999999999854e+04
-3.928059999999999854e+04 1.206290000000000049e+02 9.706190000000000509e+03 1.206290000000000049e+02 -3.650130000000000291e+04 5.465359999999999673e+03 9.706190000000000509e+03 5.465359999999999673e+03 -3.629950000000000000e+04
-3.725380000000000291e+04 2.227800000000000000e+04 3.194889999999999873e+03 2.227800000000000000e+04 -2.359890000000000146e+04 4.209199999999999818e+03 3.194889999999999873e+03 4.209199999999999818e+03 -1.657550000000000000e+04
-2.277950000000000000e+04 2.222949999999999818e+03 -9.166299999999999955e+02 2.222949999999999818e+03 -4.027580000000000291e+04 -1.477129999999999927e+04 -9.166299999999999955e+02 -1.477129999999999927e+04 -4.143959999999999854e+04
-2.670890000000000146e+04 7.408510000000000218e+03 -1.854740000000000009e+03 7.408510000000000218e+03 -2.444209999999999854e+04 -1.907109999999999900e+03 -1.854740000000000009e+03 -1.907109999999999900e+03 -4.507480000000000291e+04
-4.841659999999999854e+04 5.005939999999999600e+03 5.255579999999999927e+03 5.005939999999999600e+03 -3.269420000000000073e+04 -4.792930000000000291e+03 5.255579999999999927e+03 -4.792930000000000291e+03 -3.359080000000000291e+04
-3.881590000000000146e+04 5.114800000000000182e+03 -1.415079999999999927e+04 5.114800000000000182e+03 -1.845209999999999854e+04 2.209269999999999982e+03 -1.415079999999999927e+04 2.209269999999999982e+03 -1.694450000000000000e+04
-4.265980000000000291e+04 1.018279999999999973e+03 6.144550000000000182e+03 1.018279999999999973e+03 1.122289999999999964e+03 4.839710000000000036e+03 6.144550000000000182e+03 4.839710000000000036e+03 -3.089359999999999854e+04
-1.671250000000000000e+04 2.015529999999999973e+03 -8.860309999999999491e+03 2.015529999999999973e+03 -2.293520000000000073e+04 -3.710949999999999818e+03 -8.860309999999999491e+03 -3.710949999999999818e+03 -8.468270000000000437e+03
-1.515729999999999927e+04 7.765829999999999700e+02 -8.538000000000000000e+03 7.765829999999999700e+02 -1.425900000000000000e+04 -1.537569999999999936e+03 -8.538000000000000000e+03 -1.537569999999999936e+03 -1.321279999999999927e+04
-3.574619999999999709e+04 -1.264690000000000055e+03 -6.150729999999999563e+03 -1.264690000000000055e+03 -1.898090000000000146e+04 -7.774510000000000218e+03 -6.150729999999999563e+03 -7.774510000000000218e+03 -3.225450000000000000e+04
-2.794640000000000146e+04 1.603550000000000000e+04 3.635480000000000018e+03 1.603550000000000000e+04 -2.150009999999999854e+04 4.946800000000000182e+03 3.635480000000000018e+03 4.946800000000000182e+03 -2.854420000000000073e+04
-3.966119999999999709e+04 2.855510000000000218e+03 7.431310000000000400e+03 2.855510000000000218e+03 -2.882290000000000146e+04 5.114060000000000400e+03 7.431310000000000400e+03 5.114060000000000400e+03 -4.801609999999999673e+03
-2.118190000000000146e+04 6.539239999999999782e+03 -6.307109999999999673e+03 6.539239999999999782e+03 -3.316150000000000000e+04 -9.680290000000000873e+03 -6.307109999999999673e+03 -9.680290000000000873e+03 -2.791700000000000000e+04
-4.674550000000000000e+04 1.384170000000000073e+04 1.449900000000000091e+03 1.384170000000000073e+04 -1.814770000000000073e+04 1.762059999999999945e+03 1.449900000000000091e+03 1.762059999999999945e+03 -6.759909999999999854e+03
-3.487619999999999709e+04 2.233539999999999964e+03 -8.043420000000000073e+03 2.233539999999999964e+03 -6.145000000000000000e+04 1.188789999999999964e+04 -8.043420000000000073e+03 1.188789999999999964e+04 -2.773879999999999927e+04
-2.269959999999999854e+04 9.495819999999999936e+02 -1.798980000000000018e+03 9.495819999999999936e+02 -2.634509999999999854e+04 -9.645870000000000800e+03 -1.798980000000000018e+03 -9.645870000000000800e+03 -6.578960000000000036e+03
-2.211579999999999927e+04 6.582640000000000327e+03 -9.161889999999999645e+02 6.582640000000000327e+03 -1.702979999999999927e+04 -6.586170000000000073e+03 -9.161889999999999645e+02 -6.586170000000000073e+03 -7.664920000000000073e+03
-3.122120000000000073e+04 -7.399239999999999782e+03 -5.199970000000000255e+03 -7.399239999999999782e+03 -4.198759999999999854e+04 3.289630000000000109e+03 -5.199970000000000255e+03 3.289630000000000109e+03 -4.831559999999999854e+04
-1.365060000000000036e+04 -6.840369999999999891e+03 2.661039999999999964e+03 -6.840369999999999891e+03 -2.685659999999999854e+04 -2.772250000000000000e+03 2.661039999999999964e+03 -2.772250000000000000e+03 -3.964119999999999709e+04
-2.571620000000000073e+04 -2.203679999999999836e+03 2.802409999999999854e+02 -2.203679999999999836e+03 -1.048320000000000073e+04 1.090320000000000073e+04 2.802409999999999854e+02 1.090320000000000073e+04 -2.050920000000000073e+04
-1.449100000000000000e+04 4.477229999999999563e+03 1.802809999999999945e+03 4.477229999999999563e+03 -1.777270000000000073e+04 -1.826789999999999964e+03 1.802809999999999945e+03 -1.826789999999999964e+03 -1.359479999999999927e+04
-2.669500000000000000e+04 9.494349999999999454e+02 5.414460000000000036e+03 9.494349999999999454e+02 -2.545620000000000073e+04 -2.312829999999999927e+03 5.414460000000000036e+03 -2.312829999999999927e+03 -4.446800000000000000e+04
-1.568489999999999964e+04 1.411650000000000091e+03 2.141599999999999909e+03 1.411650000000000091e+03 -1.784879999999999927e+04 6.114989999999999782e+03 2.141599999999999909e+03 6.114989999999999782e+03 -4.269959999999999854e+04
-4.285730000000000291e+04 -1.016439999999999964e+04 -4.805279999999999745e+03 -1.016439999999999964e+04 -3.905809999999999854e+04 3.437179999999999836e+03 -4.805279999999999745e+03 3.437179999999999836e+03 -8.883709999999999127e+03
-6.139550000000000182e+03 5.924039999999999964e+02 2.331510000000000218e+03 5.924039999999999964e+02 -8.869729999999999563e+03 6.676350000000000364e+03 2.331510000000000218e+03 6.676350000000000364e+03 -2.445690000000000146e+04
-2.436059999999999854e+04 6.926289999999999964e+03 -1.116029999999999927e+04 6.926289999999999964e+03 -1.066679999999999927e+04 3.177529999999999859e+02 -1.116029999999999927e+04 3.177529999999999859e+02 -2.331240000000000146e+04
-3.786100000000000000e+04 -4.420600000000000023e+02 -1.275339999999999964e+04 -4.420600000000000023e+02 -2.847479999999999927e+04 6.246939999999999600e+03 -1.275339999999999964e+04 6.246939999999999600e+03 -4.237519999999999709e+04
-3.306619999999999709e+04 1.173270000000000073e+04 -8.262030000000000655e+03 1.173270000000000073e+04 -2.667600000000000000e+04 1.173919999999999959e+02 -8.262030000000000655e+03 1.173919999999999959e+02 -1.750409999999999854e+04
-2.422150000000000000e+04 -2.225889999999999873e+03 1.061029999999999927e+04 -2.225889999999999873e+03 -3.678350000000000000e+04 1.105710000000000036e+04 1.061029999999999927e+04 1.105710000000000036e+04 -1.140400000000000000e+04
-1.028989999999999964e+04 3.941019999999999754e+02 4.270550000000000182e+03 3.941019999999999754e+02 -1.260389999999999964e+04 -6.207220000000000255e+03 4.270550000000000182e+03 -6.207220000000000255e+03 -1.355220000000000073e+04
-3.804759999999999854e+04 -7.661680000000000291e+03 -4.738350000000000364e+03 -7.661680000000000291e+03 -1.889290000000000146e+04 -4.930029999999999745e+03 -4.738350000000000364e+03 -4.930029999999999745e+03 -1.490420000000000073e+04
-3.625430000000000291e+04 2.516579999999999927e+03 1.261450000000000045e+03 2.516579999999999927e+03 -4.326650000000000000e+04 1.082200000000000000e+04 1.261450000000000045e+03 1.082200000000000000e+04 -3.090079999999999927e+04
-4.372300000000000000e+04 1.182189999999999964e+04 -1.154429999999999927e+04 1.182189999999999964e+04 -3.525840000000000146e+04 -1.034650000000000000e+04 -1.154429999999999927e+04 -1.034650000000000000e+04 -4.052100000000000000e+04
-3.069670000000000073e+04 2.075679999999999927e+04 4.029440000000000055e+03 2.075679999999999927e+04 -2.903120000000000073e+04 -6.714449999999999818e+03 4.029440000000000055e+03 -6.714449999999999818e+03 -9.023600000000000364e+03
-4.651100000000000000e+04 3.154880000000000109e+03 5.685720000000000255e+03 3.154880000000000109e+03 -3.053369999999999891e+03 -3.585320000000000164e+03 5.685720000000000255e+03 -3.585320000000000164e+03 -2.529370000000000073e+04
-1.597520000000000073e+04 2.679570000000000164e+03 -2.485879999999999927e+04 2.679570000000000164e+03 -1.692459999999999854e+04 4.046940000000000055e+03 -2.485879999999999927e+04 4.046940000000000055e+03 -3.685059999999999854e+04
-2.114340000000000146e+04 -4.267899999999999636e+03 -3.503380000000000109e+03 -4.267899999999999636e+03 -5.183969999999999709e+04 -3.810690000000000055e+03 -3.503380000000000109e+03 -3.810690000000000055e+03 -2.954829999999999927e+04
-3.560040000000000146e+04 -5.775609999999999673e+03 -2.901119999999999891e+03 -5.775609999999999673e+03 -1.973140000000000146e+04 1.018529999999999927e+04 -2.901119999999999891e+03 1.018529999999999927e+04 -2.133670000000000073e+04
-5.964569999999999709e+04 -2.404769999999999982e+03 1.438689999999999964e+04 -2.404769999999999982e+03 -4.115050000000000000e+04 1.874009999999999991e+03 1.438689999999999964e+04 1.874009999999999991e+03 -2.341829999999999927e+04
-1.265700000000000000e+04 7.839680000000000291e+03 9.485969999999999345e+03 7.839680000000000291e+03 -1.610729999999999927e+04 2.852570000000000164e+03 9.485969999999999345e+03 2.852570000000000164e+03 -3.145209999999999854e+04
-3.733280000000000291e+04 2.593369999999999891e+03 -1.091389999999999964e+04 2.593369999999999891e+03 -2.523650000000000000e+04 -9.901989999999999782e+03 -1.091389999999999964e+04 -9.901989999999999782e+03 -1.523320000000000073e+04
-2.933000000000000000e+04 9.027719999999999345e+03 5.222330000000000183e+01 9.027719999999999345e+03 -1.208429999999999927e+04 1.237960000000000036e+04 5.222330000000000183e+01 1.237960000000000036e+04 -4.099650000000000000e+04
-4.212450000000000000e+04 -1.573779999999999927e+04 -7.917500000000000000e+03 -1.573779999999999927e+04 -3.931169999999999709e+04 -6.869060000000000400e+03 -7.917500000000000000e+03 -6.869060000000000400e+03 -5.118980000000000291e+04
-2.931920000000000073e+04 -2.912150000000000091e+03 -4.067090000000000146e+03 -2.912150000000000091e+03 -2.686250000000000000e+04 1.786769999999999982e+03 -4.067090000000000146e+03 1.786769999999999982e+03 -2.698020000000000073e+04
-2.163270000000000073e+04 -1.470589999999999964e+04 -8.769399999999999636e+03 -1.470589999999999964e+04 -2.596620000000000073e+04 -6.201930000000000291e+03 -8.769399999999999636e+03 -6.201930000000000291e+03 -2.223570000000000073e+04
-2.928520000000000073e+04 -4.989460000000000036e+03 5.339729999999999563e+03 -4.989460000000000036e+03 -6.376840000000000146e+03 9.296489999999999782e+03 5.339729999999999563e+03 9.296489999999999782e+03 -3.166940000000000146e+04
-2.385359999999999854e+04 -7.511189999999999600e+03 -3.373190000000000168e+02 -7.511189999999999600e+03 -5.893809999999999854e+04 4.110930000000000291e+03 -3.373190000000000168e+02 4.110930000000000291e+03 -4.126640000000000146e+04
-3.219240000000000146e+04 -7.915879999999999654e+02 6.516880000000000450e+01 -7.915879999999999654e+02 -2.310579999999999927e+04 -6.065699999999999818e+03 6.516880000000000450e+01 -6.065699999999999818e+03 -4.095569999999999709e+04
-4.034000000000000000e+04 -5.677489999999999782e+03 7.660939999999999600e+03 -5.677489999999999782e+03 -3.701059999999999854e+04 3.786269999999999982e+03 7.660939999999999600e+03 3.786269999999999982e+03 -3.587300000000000000e+04
-3.951919999999999709e+04 -1.185129999999999927e+04 1.194810000000000036e+04 -1.185129999999999927e+04 -2.715109999999999854e+04 -6.033340000000000146e+03 1.194810000000000036e+04 -6.033340000000000146e+03 -3.078809999999999854e+04
-3.242329999999999927e+04 -9.115690000000000509e+03 -7.531930000000000291e+03 -9.115690000000000509e+03 -2.172270000000000073e+04 -1.052929999999999927e+04 -7.531930000000000291e+03 -1.052929999999999927e+04 -4.377819999999999709e+04
-4.323530000000000291e+04 1.991990000000000009e+03 -2.091429999999999836e+03 1.991990000000000009e+03 -1.634560000000000036e+04 -9.481549999999999272e+03 -2.091429999999999836e+03 -9.481549999999999272e+03 -2.711440000000000146e+04
-3.425230000000000291e+04 -3.640190000000000055e+03 9.670879999999999200e+03 -3.640190000000000055e+03 -2.384030000000000200e+03 -1.216189999999999964e+04 9.670879999999999200e+03 -1.216189999999999964e+04 -6.602800000000000182e+03
-2.140259999999999854e+04 7.975609999999999673e+03 3.687559999999999945e+03 7.975609999999999673e+03 -7.507659999999999854e+03 -3.580900000000000091e+03 3.687559999999999945e+03 -3.580900000000000091e+03 -5.432790000000000146e+04
-3.512000000000000000e+04 -1.227759999999999991e+03 1.839589999999999918e+03 -1.227759999999999991e+03 -3.617559999999999854e+04 -7.309359999999999673e+03 1.839589999999999918e+03 -7.309359999999999673e+03 -3.361230000000000291e+04
2.034059999999999945e+03 -8.941809999999999491e+03 1.780599999999999909e+03 -8.941809999999999491e+03 2.806820000000000164e+02 3.339059999999999945e+03 1.780599999999999909e+03 3.339059999999999945e+03 -1.294739999999999964e+04
-1.488529999999999927e+04 -1.192529999999999927e+04 -1.085970000000000073e+04 -1.192529999999999927e+04 -3.246029999999999927e+04 5.008590000000000146e+03 -1.085970000000000073e+04 5.008590000000000146e+03 -1.610129999999999927e+04
-3.997290000000000146e+04 8.105949999999999818e+03 4.774979999999999563e+03 8.105949999999999818e+03 -2.949879999999999927e+04 -2.342110000000000127e+03 4.774979999999999563e+03 -2.342110000000000127e+03 -3.927119999999999709e+04
-4.548200000000000000e+04 1.657850000000000000e+04 -8.895030000000000655e+03 1.657850000000000000e+04 -2.746670000000000073e+04 -6.260329999999999927e+03 -8.895030000000000655e+03 -6.260329999999999927e+03 -4.503340000000000146e+04