-3.005650636300000042e+04
-3.005161675599999944e+04
-3.005088015000000087e+04
-3.005196133700000064e+04
-3.005134065399999963e+04
-3.005306048500000179e+04
-3.004906577399999878e+04
-3.005463766699999906e+04
-3.005177772900000127e+04
-3.005306366799999887e+04
-3.004946411000000080e+04
-3.005319886699999915e+04
-3.005039841099999830e+04
-3.005327446300000156e+04
-3.005049824299999818e+04
-3.005359195800000089e+04
-3.005285895399999936e+04
-3.004838007300000027e+04
-3.004972444499999983e+04
-3.004818094500000007e+04
-3.004764159099999961e+04
-3.004939387799999895e+04
-3.005226580599999943e+04
-3.005179964000000109e+04
-3.005328861699999834e+04
-3.005119104800000059e+04
-3.005604550000000017e+04
-3.005064348299999983e+04
-3.004683656100000007e+04
-3.005017830799999865e+04
-3.005194778500000029e+04
-3.005192263200000161e+04
-3.005235944599999857e+04
-3.005435563600000023e+04
-3.005671616100000028e+04
-3.005326029199999903e+04
-3.005525544000000082e+04
-3.004963241700000071e+04
-3.004971189600000071e+04
-3.005284692200000063e+04
-3.004999497500000143e+04
-3.004991090299999996e+04
-3.005529882999999973e+04
-3.005466299900000013e+04
-3.004886029300000155e+04
-3.005212177399999928e+04
-3.005146908500000063e+04
-3.005218474200000128e+04
-3.004976501899999857e+04
-3.004887309399999867e+04
-3.004967327400000067e+04
-3.004767528500000117e+04
-3.005423185599999852e+04
-3.005313260599999921e+04
-3.005528146299999935e+04
-3.004964832400000159e+04
-3.005167648499999996e+04
-3.005071626699999979e+04
-3.005338138800000161e+04
-3.005277056299999822e+04
-3.005614203899999848e+04
-3.005312776500000109e+04
-3.004729076200000054e+04
-3.005450938300000053e+04
-3.004708422200000132e+04
-3.004936840700000175e+04
-3.005139524000000165e+04
-3.005117334100000153e+04
-3.005235971499999869e+04
-3.004841647699999885e+04
-3.004864851400000043e+04
-3.004691645399999834e+04
-3.005441011499999877e+04
-3.005410328999999911e+04
-3.005143381500000032e+04
-3.005453047900000092e+04
-3.005341937400000097e+04
-3.005601512699999876e+04
-3.005508436599999914e+04
-3.005314891999999963e+04
-3.005103774600000179e+04
-3.005277316499999870e+04
-3.005252442599999995e+04
-3.005725114300000132e+04
-3.005686070100000143e+04
-3.005304215900000054e+04
-3.005043103699999847e+04
-3.005709781500000099e+04
-3.005389714100000128e+04
-3.005127817199999845e+04
-3.004912150499999916e+04
-3.005424290100000144e+04
-3.004611792100000093e+04
-3.005071450900000127e+04
-3.005145816399999967e+04
-3.005288797600000180e+04
-3.004977932199999850e+04
-3.005448288200000025e+04
-3.004938153800000146e+04
-3.004732881600000110e+04
-3.004903974000000017e+04
-3.005173327799999970e+04
-3.005564592300000004e+04
-3.004925236999999834e+04
-3.005157571800000005e+04
-3.005044192699999985e+04
-3.005237799100000120e+04
-3.005346300500000143e+04
-3.005543518699999913e+04
-3.005227091400000063e+04
-3.005079793000000063e+04
-3.005301035699999920e+04
-3.004889078900000095e+04
-3.005622602399999960e+04
-3.005308558800000174e+04
-3.005289720099999977e+04
-3.004991809600000124e+04
-3.004972061000000031e+04
-3.005132049399999960e+04
-3.005324038400000063e+04
-3.005204281600000104e+04
-3.004977481299999999e+04
-3.005243341700000019e+04
-3.005184670499999993e+04
-3.005079415700000027e+04
-3.005610955599999943e+04
-3.005174040199999945e+04
-3.005388823699999921e+04
-3.005388144800000009e+04
-3.005396052000000054e+04
-3.005166100699999879e+04
-3.005074110899999869e+04
-3.005281600899999830e+04
-3.005580790799999886e+04
-3.005289174400000047e+04
-3.004933160900000075e+04
-3.004866411000000153e+04
-3.005310476099999869e+04
-3.005616551899999831e+04
-3.005348054399999819e+04
-3.005254746900000100e+04
-3.005297226800000135e+04
-3.005296472100000028e+04
-3.004938564899999983e+04
-3.005319928300000174e+04
-3.005482408199999918e+04
-3.004921458400000120e+04
-3.005555547400000069e+04
-3.005198388699999850e+04
-3.005044841900000029e+04
-3.005140338200000042e+04
-3.005367158299999937e+04
-3.005211046599999827e+04
-3.005738102200000139e+04
-3.005039737400000013e+04
-3.005548617999999988e+04
-3.005412916699999914e+04
-3.005000762100000065e+04
-3.005094992400000046e+04
-3.005348910099999921e+04
-3.005048606600000130e+04
-3.005353644999999960e+04
-3.005278422700000010e+04
-3.005220669999999882e+04
-3.004624631099999897e+04
-3.005308930600000167e+04
-3.005191983700000128e+04
-3.005333686099999977e+04
-3.005485156199999983e+04
-3.005430530699999872e+04
-3.005145985799999835e+04
-3.005387578099999882e+04
-3.005057730699999956e+04
-3.005005001300000004e+04
-3.005256063100000028e+04
-3.005267115700000068e+04
-3.005433447900000101e+04
-3.005269603099999949e+04
-3.005088438899999892e+04
-3.005195252299999993e+04
-3.005428477500000008e+04
-3.005283311699999831e+04
-3.005187272300000041e+04
-3.005469803600000159e+04
-3.005118508199999997e+04
-3.005033131399999911e+04
-3.005154726700000174e+04
-3.005427317400000175e+04
-3.005105388500000117e+04
-3.005002807899999971e+04
-3.005157313000000067e+04
-3.004706398400000035e+04
-3.005427266500000042e+04
-3.005296096200000102e+04
-3.005083295599999838e+04
-3.005192438100000072e+04
-3.005171610000000146e+04
-3.005112248600000021e+04
-3.005382368299999871e+04
-3.005487176800000088e+04
-3.005033300199999940e+04
-3.005150323199999912e+04
-3.004972450499999832e+04
-3.005470811799999865e+04
-3.005204536100000041e+04
-3.005158138600000166e+04
-3.005416503400000147e+04
-3.005301649900000120e+04
-3.005093765500000154e+04
-3.005070705900000030e+04
-3.004708640699999887e+04
-3.005220500299999912e+04
-3.005521241300000111e+04
-3.005798353700000007e+04
-3.005285477299999911e+04
-3.004990971999999965e+04
-3.005217130399999951e+04
-3.005192789300000004e+04
-3.004819384899999932e+04
-3.005526258299999972e+04
-3.005706467100000009e+04
-3.005257086699999854e+04
-3.005406125400000019e+04
-3.005346817000000010e+04
-3.004869300999999905e+04
-3.005493554800000129e+04
-3.005061740999999893e+04
-3.004855678700000135e+04
-3.005720841799999835e+04
-3.005186220500000127e+04
-3.005482823400000052e+04
-3.005446631899999920e+04
-3.005418083199999819e+04
-3.005279833700000017e+04
-3.005064848899999924e+04
-3.005079149200000029e+04
-3.005427885199999946e+04
-3.005562655299999824e+04
-3.004951998399999866e+04
-3.005158910200000173e+04
-3.005642305900000065e+04
-3.005425822100000005e+04
-3.004893298100000175e+04
-3.005443424700000105e+04
-3.005193470499999967e+04
-3.004931104000000050e+04
-3.005123118999999861e+04
-3.005497568699999829e+04
-3.005274663900000087e+04
-3.005216893400000117e+04
-3.005407531999999992e+04
-3.005355894500000068e+04
-3.005123598199999833e+04
-3.005546825299999909e+04
-3.005084344000000056e+04
-3.005087659300000087e+04
-3.005556034500000169e+04
-3.004996401600000172e+04
-3.005530647500000123e+04
-3.005255611199999839e+04
-3.005225220300000001e+04
-3.005661638500000117e+04
-3.005198053100000106e+04
-3.005306618099999832e+04
-3.005105768800000078e+04
-3.005131419699999969e+04
-3.005264646699999867e+04
-3.005148534099999961e+04
-3.005383322599999883e+04
-3.005060624800000005e+04
-3.005259168000000136e+04
-3.005414196499999889e+04
-3.005272740300000078e+04
-3.005031072299999869e+04
-3.005409909799999878e+04
-3.005229604000000108e+04
-3.005057475699999850e+04
-3.005324868499999866e+04
-3.005304295400000046e+04
-3.005127293400000053e+04
-3.005372813799999858e+04
-3.005310735199999908e+04
-3.005144790099999955e+04
-3.005088658900000155e+04
-3.005442093400000158e+04
-3.005141136499999993e+04
-3.005051541699999871e+04
-3.004964797299999918e+04
-3.004626686899999913e+04
-3.005281581300000107e+04
-3.005590463299999828e+04
-3.005532481900000130e+04
-3.004909802100000161e+04
-3.005201908700000058e+04
-3.005274849700000050e+04
-3.005468193800000154e+04
-3.005292891299999974e+04
-3.005411879799999952e+04
-3.005227532599999904e+04
-3.004857536400000026e+04
-3.005121270699999877e+04
-3.005053824000000168e+04
-3.005189930100000129e+04
-3.005538958500000081e+04
-3.004786765699999887e+04
-3.005506048200000077e+04
-3.005145559000000139e+04
-3.005143750799999907e+04
-3.005078378800000064e+04
-3.005248884000000180e+04
-3.005229558199999883e+04
-3.005310105000000112e+04
-3.004885434299999906e+04
-3.005029778100000112e+04
-3.005167406599999958e+04
-3.004968928700000106e+04
-3.004746332700000130e+04
-3.005153895900000134e+04
-3.005029731800000081e+04
-3.005043168000000151e+04
-3.005076364800000010e+04
-3.005245706599999903e+04
-3.005426813899999979e+04
-3.005289913399999932e+04
-3.004970842700000139e+04
-3.004781705299999885e+04
-3.005311459299999842e+04
-3.005287394100000165e+04
-3.005185265799999979e+04
-3.005640813300000082e+04
-3.005204918299999918e+04
-3.004856157600000006e+04
-3.004976919999999882e+04
-3.005332738099999915e+04
-3.005427892399999837e+04
-3.005092147499999919e+04
-3.004884719400000176e+04
-3.005226088800000070e+04
-3.005560565299999871e+04
-3.004923795199999950e+04
-3.005333420699999988e+04
-3.004984655700000076e+04
-3.004914413000000059e+04
-3.005414573799999926e+04
-3.005367874799999845e+04
-3.005349296600000162e+04
-3.005178310899999997e+04
-3.004840774199999942e+04
-3.005388743999999861e+04
-3.005168667600000117e+04
-3.005093488300000172e+04
-3.005407699000000139e+04
-3.005007275799999843e+04
-3.005385587099999975e+04
-3.004982402699999875e+04
-3.005287034800000038e+04
-3.004894120399999883e+04
-3.005217180100000041e+04
-3.005367158399999971e+04
-3.004871756800000003e+04
-3.005230692300000010e+04
-3.005198141499999838e+04
-3.005212336199999845e+04
-3.005482187100000010e+04
-3.005113562800000000e+04
-3.005141811400000006e+04
-3.005117612400000144e+04
-3.005249262900000031e+04
-3.005709174200000052e+04
-3.005086667899999884e+04
-3.004945064899999852e+04
-3.005177993399999832e+04
-3.005078254999999990e+04
-3.005046912800000064e+04
-3.005113790199999858e+04
-3.005232205999999860e+04
-3.005418077400000038e+04
-3.005041399499999898e+04
-3.005399142600000050e+04
-3.005537560200000007e+04
-3.005503859200000079e+04
-3.005057957199999873e+04
-3.005280435900000157e+04
-3.005514709800000128e+04
-3.004924173399999927e+04
-3.005284283599999981e+04
-3.004738319399999818e+04
-3.005201495000000068e+04
-3.005344554200000130e+04
-3.004744859300000098e+04
-3.005170555099999910e+04
-3.005198014600000170e+04
-3.005237058099999922e+04
-3.005295262400000138e+04
-3.005094316600000093e+04
-3.005484856299999956e+04
-3.005154906299999857e+04
-3.005519763099999909e+04
-3.005420033799999874e+04
-3.005499244900000122e+04
-3.004927941600000122e+04
-3.004833357899999828e+04
-3.005361781600000177e+04
-3.005436100900000019e+04
-3.005380315699999846e+04
-3.005346500699999888e+04
-3.005082996199999980e+04
-3.004778294499999902e+04
-3.005080601999999999e+04
-3.004830063900000096e+04
-3.005391869500000030e+04
-3.005020046000000002e+04
-3.004958983900000021e+04
-3.005470575699999972e+04
-3.005197730900000170e+04
-3.005290971400000126e+04
-3.005199363699999958e+04
-3.005137618199999997e+04
-3.005352063300000009e+04
-3.005302985400000034e+04
-3.005186581300000034e+04
-3.005216385900000023e+04
-3.005483145700000023e+04
-3.005542644199999995e+04
-3.004939561600000161e+04
-3.005515804900000148e+04
-3.005523614399999860e+04
-3.005284252399999968e+04
-3.005009183299999859e+04
-3.005403501999999935e+04
-3.004950033199999962e+04
-3.005266875200000140e+04
-3.005178036000000066e+04
-3.005544797299999846e+04
-3.005394677299999967e+04
-3.005635091800000009e+04
-3.005286401399999886e+04
-3.005238147000000026e+04
-3.004943892499999856e+04
-3.005430913100000180e+04
-3.005540824699999939e+04
-3.004931229000000167e+04
-3.005340740599999845e+04
-3.005320563300000140e+04
-3.004710536299999876e+04
-3.004874791700000060e+04
-3.005485651700000017e+04
-3.005480069400000139e+04
-3.004854849900000045e+04
-3.004941749500000151e+04
-3.004909815600000002e+04
-3.005157638199999928e+04
-3.005439484100000118e+04
-3.005428861400000096e+04
-3.005087555300000167e+04
-3.005255191500000001e+04
-3.005094077699999980e+04
-3.005346171999999933e+04
-3.005454761000000144e+04
-3.005348546999999962e+04
-3.005552576799999952e+04
-3.005316180299999905e+04
-3.005230047500000001e+04
-3.005276776800000152e+04
-3.005201452900000004e+04
-3.005419278699999995e+04
-3.005368377899999905e+04
-3.005369025099999999e+04
-3.005148414200000116e+04
-3.005232368599999973e+04
-3.005077464600000167e+04
-3.004494842599999902e+04
-3.005193840899999850e+04
-3.005029682099999991e+04
-3.005261030300000130e+04
-3.005268878599999880e+04
-3.005360015299999941e+04
-3.005183374700000059e+04
-3.005310578700000042e+04
-3.004990196500000093e+04
-3.005369530300000042e+04
-3.005291181000000142e+04
-3.005126043500000014e+04
-3.005022065899999870e+04
-3.005247160300000178e+04
-3.005078110200000083e+04
-3.005414457300000140e+04
-3.005388639500000136e+04
-3.005065728999999919e+04
-3.004722897000000012e+04
-3.004680130899999858e+04
-3.005203305700000055e+04
-3.005325007700000060e+04
-3.004944349599999987e+04
-3.004830173400000058e+04
-3.004865807499999937e+04
-3.005552404200000092e+04
-3.005259175099999993e+04
-3.005306575199999861e+04
-3.005026226400000087e+04
-3.005354184099999839e+04
-3.005307671499999924e+04
-3.005483416600000055e+04
-3.004847715999999855e+04
-3.005138926500000161e+04
-3.004544188800000120e+04
-3.005133857899999930e+04
-3.005219998800000030e+04
-3.004763973800000167e+04
-3.005189803699999902e+04
-3.005269983700000012e+04
-3.005239445799999885e+04
-3.005273722899999848e+04
-3.004744719600000099e+04
-3.005537265599999955e+04
-3.005038349499999822e+04
-3.005176619500000015e+04
-3.004917922399999952e+04
-3.005126949099999911e+04
-3.004903838199999882e+04
-3.005112741100000130e+04
-3.005173869700000068e+04
-3.005310608100000172e+04
-3.004690523499999836e+04
-3.005258505700000023e+04
-3.005533740499999840e+04
-3.005287567499999932e+04
-3.005262700599999880e+04
-3.005315965700000015e+04
-3.005585458099999960e+04
-3.005169475099999909e+04
-3.005289159600000130e+04
-3.005334720599999855e+04
-3.004998050199999852e+04
-3.004810989400000108e+04
-3.005440898400000151e+04
-3.005330663099999947e+04
-3.005425552700000117e+04
-3.005355412000000069e+04
-3.005233833600000071e+04
-3.004448991799999931e+04
-3.005619134299999860e+04
-3.005145532399999865e+04
-3.005000453700000071e+04
-3.005160765199999878e+04
-3.005253011999999944e+04
-3.005172156900000118e+04
-3.005698816699999952e+04
-3.005243241199999829e+04
-3.005400615499999913e+04
-3.004887821199999962e+04
-3.005256892399999924e+04
-3.005528668800000014e+04
-3.004931921399999919e+04
-3.005160362900000109e+04
-3.004909625900000174e+04
-3.005720250300000043e+04
-3.005283168999999907e+04
-3.005352747100000124e+04
-3.005082890499999849e+04
-3.005265760500000033e+04
-3.004833357099999921e+04
-3.005521935500000109e+04
-3.005142621800000052e+04
-3.005224760899999819e+04
-3.004964861999999994e+04
-3.005289584800000011e+04
-3.005302647499999875e+04
-3.005451843400000143e+04
-3.005425103899999885e+04
-3.004886251400000037e+04
-3.005138409200000024e+04
-3.005139222199999858e+04
-3.004571685300000172e+04
-3.005244014899999820e+04
-3.004917190100000153e+04
-3.005439977799999906e+04
-3.005672727200000008e+04
-3.005388511600000129e+04
-3.005171113699999842e+04
-3.005298787100000118e+04
-3.005228964600000108e+04
-3.005099403700000039e+04
-3.005030078299999877e+04
-3.005385318900000129e+04
-3.005432884900000136e+04
-3.004929494200000045e+04
-3.005420404799999960e+04
-3.004702706799999942e+04
-3.005107003800000166e+04
-3.005177089699999851e+04
-3.005298670100000163e+04
-3.005023651199999949e+04
-3.005295236500000101e+04
-3.005474612899999920e+04
-3.004998571699999957e+04
-3.005316647599999851e+04
-3.004872486399999980e+04
-3.005119422100000156e+04
-3.004966772900000069e+04
-3.005649906199999896e+04
-3.005470726700000159e+04
-3.004818603599999915e+04
-3.005071998600000006e+04
-3.005141631799999959e+04
-3.004812303999999858e+04
-3.004800227499999892e+04
-3.004917374900000141e+04
-3.005238067800000135e+04
-3.005142855899999995e+04
-3.005734159500000169e+04
-3.004847340999999869e+04
-3.005143330300000162e+04
-3.004889754800000082e+04
-3.005259930700000041e+04
-3.005198028500000146e+04
-3.005130786100000114e+04
-3.004929619499999899e+04
-3.005478598399999828e+04
-3.005423368599999958e+04
-3.004996645100000023e+04
-3.004931548100000145e+04
-3.005499868699999934e+04
-3.005325212900000042e+04
-3.004920017200000075e+04
-3.005302238800000123e+04
-3.004622037500000079e+04
-3.005324807199999850e+04
-3.005224052300000039e+04
-3.004891139800000019e+04
-3.005327815199999895e+04
-3.005346574999999939e+04
-3.005531120699999883e+04
-3.004691424700000061e+04
-3.004977977800000008e+04
-3.005305186699999831e+04
-3.005134002699999837e+04
-3.005322564300000158e+04
-3.005183200399999987e+04
-3.005157619600000180e+04
-3.005337869599999976e+04
-3.005274540599999818e+04
-3.005098506300000008e+04
-3.005192902899999899e+04
-3.004982254200000170e+04
-3.004983384300000034e+04
-3.005058921199999895e+04
-3.004946012699999847e+04
-3.004908094599999822e+04
-3.005301948600000105e+04
-3.005065186499999982e+04
-3.005299653799999942e+04
-3.004986374699999942e+04
-3.005091250700000091e+04
-3.005373042200000054e+04
-3.005167179499999838e+04
-3.004830964899999890e+04
-3.004865044299999863e+04
-3.005087250499999936e+04
-3.005042998000000080e+04
-3.005211119200000030e+04
-3.005377085200000147e+04
-3.004995936300000176e+04
-3.005304298399999971e+04
-3.005239456000000064e+04
-3.005132872000000134e+04
-3.005319700300000113e+04
-3.005478635500000019e+04
-3.005781338500000129e+04
-3.005003436399999919e+04
-3.005275012900000002e+04
-3.005079039700000067e+04
-3.005239555200000177e+04
-3.005060437699999966e+04
-3.005201123599999846e+04
-3.005350401300000158e+04
-3.005140829999999914e+04
-3.005266264800000135e+04
-3.005152029599999878e+04
-3.005295486600000004e+04
-3.005378902799999923e+04
-3.005357805699999881e+04
-3.005013612300000023e+04
-3.005258518800000093e+04
-3.005267692000000170e+04
-3.005382376400000066e+04
-3.005490141600000061e+04
-3.005607776400000148e+04
-3.005321959599999900e+04
-3.004640977099999873e+04
-3.005293792200000098e+04
-3.004830597699999998e+04
-3.005465809399999853e+04
-3.004861517900000035e+04
-3.005247537899999952e+04
-3.004951205000000118e+04
-3.005287793099999908e+04
-3.005066526499999964e+04
-3.005233654599999863e+04
-3.005226677900000141e+04
-3.005195867799999905e+04
-3.005137442699999883e+04
-3.005606218699999954e+04
-3.005333868300000177e+04
-3.005169798699999956e+04
-3.005006580200000099e+04
-3.005143795200000022e+04
-3.005077856500000053e+04
-3.005086893399999826e+04
-3.005077741299999980e+04
-3.005489185899999939e+04
-3.005481761600000027e+04
-3.005212082599999849e+04
-3.005150136299999940e+04
-3.005076128299999982e+04
-3.004891743000000133e+04
-3.005075185799999963e+04
-3.005238142199999857e+04
-3.005488660900000104e+04
-3.004967934700000114e+04
-3.005047268700000132e+04
-3.005262026300000070e+04
-3.005436191899999903e+04
-3.005078023400000166e+04
-3.005147936699999991e+04
-3.005308288299999913e+04
-3.005590242900000158e+04
-3.005080097000000023e+04
-3.004878445600000123e+04
-3.005399179100000038e+04
-3.005283441200000016e+04
-3.005590868499999851e+04
-3.005203153200000088e+04
-3.005057887800000026e+04
-3.005156214199999886e+04
-3.005783518600000025e+04
-3.005265695499999856e+04
-3.005153461099999913e+04
-3.004772543199999927e+04
-3.005391626700000052e+04
-3.005043567299999995e+04
-3.004805722700000115e+04
-3.005454644700000063e+04
-3.005362762500000099e+04
-3.005635933300000033e+04
-3.004961503200000152e+04
-3.005172196600000098e+04
-3.005139642800000001e+04
-3.005173189700000148e+04
-3.005458100900000136e+04
-3.005481058499999926e+04
-3.004998682600000029e+04
-3.005351662500000020e+04
-3.005178437699999995e+04
-3.004929955200000040e+04
-3.005347551699999894e+04
-3.005285277599999972e+04
-3.005053277800000069e+04
-3.005510702400000082e+04
-3.005031958200000008e+04
-3.005312464800000089e+04
-3.005098226000000068e+04
-3.005202099799999996e+04
-3.004990252500000133e+04
-3.005447348300000158e+04
-3.005330263199999899e+04
-3.004761523700000180e+04
-3.005146348800000123e+04
-3.005166418500000145e+04
-3.005390094899999895e+04
-3.005046127999999953e+04
-3.005158985499999835e+04
-3.004853215600000112e+04
-3.005196248800000103e+04
-3.005323543300000165e+04
-3.005193778300000122e+04
-3.004932070200000089e+04
-3.005008694800000012e+04
-3.005484578600000168e+04
-3.005123504999999932e+04
-3.005308223999999973e+04
-3.005285457400000087e+04
-3.005701411500000177e+04
-3.005330194199999823e+04
-3.005085584000000017e+04
-3.005237164599999960e+04
-3.005301179499999853e+04
-3.005488685299999997e+04
-3.004751852700000018e+04
-3.005156698699999833e+04
-3.004710210100000040e+04
-3.005067647199999919e+04
-3.005188940000000002e+04
-3.004755748600000152e+04
-3.005264444599999842e+04
-3.005300228399999833e+04
-3.005065788299999986e+04
-3.004947309600000153e+04
-3.005522865100000126e+04
-3.005202662899999996e+04
-3.005003518099999928e+04
-3.005382198000000062e+04
-3.004691434799999843e+04
-3.005242827899999975e+04
-3.005222387900000103e+04
-3.005303862300000037e+04
-3.005113708899999983e+04
-3.005071910299999945e+04
-3.005001800300000104e+04
-3.005080922899999860e+04
-3.005124774400000024e+04
-3.005013250999999946e+04
-3.005259151500000007e+04
-3.005001368500000171e+04
-3.005151275900000110e+04
-3.005205991200000062e+04
-3.005455510700000013e+04
-3.005307949799999915e+04
-3.005095730900000126e+04
-3.005330826499999966e+04
-3.005224187499999971e+04
-3.004841297499999928e+04
-3.005327929399999994e+04
-3.005347922599999947e+04
-3.004977595600000132e+04
-3.005323697499999980e+04
-3.004914960100000098e+04
-3.005249187399999937e+04
-3.004818000400000165e+04
-3.005124135100000058e+04
-3.005217703199999960e+04
-3.004835973899999954e+04
-3.005120686700000078e+04
-3.005354204000000027e+04
-3.005339637199999925e+04
-3.005224057199999879e+04
-3.004760684400000173e+04
-3.004991971299999932e+04
-3.004732599199999822e+04
-3.005460146600000007e+04
-3.004828745899999922e+04
-3.005460078499999872e+04
-3.004942994099999851e+04
-3.005198504500000126e+04
-3.005201952900000106e+04
-3.004902122199999940e+04
-3.005032128799999919e+04
-3.004992813999999998e+04
-3.005076923199999874e+04
-3.005256973600000128e+04
-3.005048428000000058e+04
-3.005236317000000054e+04
-3.005085332099999869e+04
-3.004930332999999882e+04
-3.005399628999999914e+04
-3.005383880199999840e+04
-3.005315827799999897e+04
-3.005583000299999912e+04
-3.005278425300000163e+04
-3.005334545699999944e+04
-3.005097294400000101e+04
-3.005161784400000033e+04
-3.005241344000000026e+04
-3.005254798300000039e+04
-3.005532478600000104e+04
-3.005227161899999919e+04
-3.005065554899999916e+04
-3.004813241500000004e+04
-3.004708203599999979e+04
-3.005068907400000171e+04
-3.005404481400000077e+04
-3.005211187100000097e+04
-3.005325810300000012e+04
-3.005169136399999843e+04
-3.005350370800000019e+04
-3.004968978799999968e+04
-3.005358166500000152e+04
-3.004729467199999999e+04
-3.005412533899999835e+04
-3.005266130300000077e+04
-3.004949487999999837e+04
-3.004648677799999859e+04
-3.004789460400000098e+04
-3.005036201300000175e+04
-3.004637461999999869e+04
-3.005033025999999882e+04
-3.004899742100000003e+04
-3.005198137700000007e+04
-3.005326513300000079e+04
-3.005321705999999904e+04
-3.005137697499999922e+04
-3.005235235800000009e+04
-3.004768024399999922e+04
-3.005346076700000049e+04
-3.005582433099999980e+04
-3.004918211800000063e+04
-3.005370738899999924e+04
-3.005248015700000178e+04
-3.005438723200000095e+04
-3.004782715200000166e+04
-3.005369859200000064e+04
-3.005089230400000088e+04
-3.005676704099999915e+04
-3.005158717500000057e+04
-3.005329927799999859e+04
-3.004843751200000042e+04
-3.005096918599999844e+04
-3.005311966799999936e+04
-3.004691994999999952e+04
-3.004864583100000164e+04
-3.005266755199999898e+04
-3.005641508199999953e+04
-3.005062004800000068e+04
-3.005009228000000076e+04
-3.005314406700000109e+04
-3.005277688699999999e+04
-3.005108456799999840e+04
-3.005243063800000164e+04
-3.004787383599999885e+04
-3.005310572899999897e+04
-3.005552775100000144e+04
-3.005370749100000103e+04
-3.004889660200000071e+04
-3.005455811099999846e+04
-3.004782711500000005e+04
-3.005230950799999846e+04
-3.004871584699999948e+04
-3.005060420800000065e+04
-3.005586828600000081e+04
-3.005424845500000083e+04
-3.005164984800000093e+04
-3.004990073100000154e+04
-3.005318891399999848e+04
-3.005376260700000057e+04
-3.005289357000000018e+04
-3.005362109200000123e+04
-3.005043469700000060e+04
-3.005036561699999947e+04
-3.005277233699999852e+04
-3.005315017900000021e+04
-3.004902339399999983e+04
-3.005235810299999866e+04
-3.004695974199999910e+04
-3.005381210799999826e+04
-3.005090479699999923e+04
-3.005041607600000134e+04
-3.005235714200000075e+04
-3.005488468500000090e+04
-3.005391174699999829e+04
-3.004996556799999962e+04
-3.005227383299999929e+04
-3.004742636199999833e+04
-3.005055619799999840e+04
-3.005029998300000079e+04
-3.005331592499999897e+04
-3.005589107299999887e+04
-3.004856868499999837e+04
-3.005522124400000030e+04
-3.005363640999999916e+04
-3.005411376499999824e+04
-3.004841727800000081e+04
-3.005306272900000113e+04
-3.005095693100000062e+04
-3.005313324199999988e+04
-3.005487464900000123e+04
-3.005327672800000073e+04
-3.005071984299999895e+04
-3.005348926299999948e+04
-3.005295439099999930e+04
-3.005396714100000099e+04
-3.005265119499999855e+04
-3.005347681300000113e+04
-3.004971553000000131e+04
-3.005272676599999977e+04
-3.005059295099999872e+04
-3.005276429099999950e+04
-3.005273468399999911e+04
-3.004883801899999889e+04
-3.005061730399999942e+04
-3.005019429600000149e+04
-3.005417864199999894e+04
-3.005217448599999989e+04
-3.005217276499999934e+04
-3.005361585500000001e+04
-3.005522180600000138e+04
-3.005315629800000170e+04
-3.005393533000000025e+04
-3.005493501900000047e+04
-3.005559019899999839e+04
-3.005206951399999889e+04
-3.005500937400000112e+04
-3.005764780500000052e+04
-3.005149648000000161e+04
-3.004934138000000166e+04
-3.005272145900000032e+04
-3.005269387899999856e+04
-3.005045418900000004e+04
-3.005259338900000148e+04
-3.005341726600000038e+04
-3.005066673100000116e+04
