-2.463909999999999854e+03 6.173390000000000327e+03 1.856500000000000000e+03 6.173390000000000327e+03 -2.626920000000000073e+04 5.840779999999999745e+03 1.856500000000000000e+03 5.840779999999999745e+03 -1.484320000000000073e+04
-3.751369999999999709e+04 6.912020000000000437e+03 1.383760000000000036e+04 6.912020000000000437e+03 -3.116879999999999927e+04 1.375270000000000073e+04 1.383760000000000036e+04 1.375270000000000073e+04 -3.183179999999999927e+04
-3.517230000000000291e+04 1.254979999999999927e+04 8.560799999999999272e+03 1.254979999999999927e+04 -4.416700000000000000e+04 1.851210000000000036e+03 8.560799999999999272e+03 1.851210000000000036e+03 -1.848679999999999927e+04
-3.779059999999999854e+04 1.390700000000000000e+04 -1.357600000000000000e+04 1.390700000000000000e+04 -3.393909999999999854e+04 1.451989999999999964e+04 -1.357600000000000000e+04 1.451989999999999964e+04 -1.611770000000000073e+04
-3.173959999999999854e+04 -7.058539999999999964e+03 1.128019999999999982e+03 -7.058539999999999964e+03 -1.837509999999999854e+04 -8.336319999999999709e+03 1.128019999999999982e+03 -8.336319999999999709e+03 -4.907640000000000146e+04
-3.586959999999999854e+04 -4.682739999999999782e+03 3.086909999999999854e+03 -4.682739999999999782e+03 -4.414119999999999709e+04 -5.074199999999999818e+03 3.086909999999999854e+03 -5.074199999999999818e+03 -3.744650000000000000e+04
-3.092529999999999927e+04 -9.313110000000000582e+03 1.211389999999999964e+04 -9.313110000000000582e+03 -4.074350000000000000e+04 -7.848359999999999673e+03 1.211389999999999964e+04 -7.848359999999999673e+03 -2.952800000000000000e+04
-3.140729999999999927e+04 4.105779999999999745e+03 4.553579999999999927e+03 4.105779999999999745e+03 -2.241400000000000000e+04 3.739039999999999964e+03 4.553579999999999927e+03 3.739039999999999964e+03 -2.141050000000000000e+04
-3.371159999999999854e+04 -3.259909999999999854e+03 1.998609999999999900e+03 -3.259909999999999854e+03 -3.670730000000000291e+04 -4.608750000000000000e+03 1.998609999999999900e+03 -4.608750000000000000e+03 -3.496550000000000000e+04
-1.155500000000000000e+04 1.334560000000000036e+04 1.839289999999999964e+03 1.334560000000000036e+04 -1.842170000000000073e+04 1.067489999999999964e+04 1.839289999999999964e+03 1.067489999999999964e+04 -1.644670000000000130e+02
-4.174469999999999709e+04 3.301690000000000055e+03 -8.251290000000000191e+02 3.301690000000000055e+03 -6.014300000000000000e+04 4.419420000000000073e+03 -8.251290000000000191e+02 4.419420000000000073e+03 -2.619859999999999854e+04
-2.840709999999999854e+04 -6.374779999999999745e+03 3.046900000000000091e+03 -6.374779999999999745e+03 -2.085170000000000073e+04 1.600539999999999964e+03 3.046900000000000091e+03 1.600539999999999964e+03 -1.448629999999999927e+04
-2.193509999999999854e+04 -1.717490000000000146e+04 -1.382670000000000073e+03 -1.717490000000000146e+04 -5.846690000000000146e+04 4.706279999999999745e+03 -1.382670000000000073e+03 4.706279999999999745e+03 -4.326230000000000291e+04
-9.203079999999999927e+02 1.191800000000000000e+04 7.920289999999999964e+02 1.191800000000000000e+04 -7.527220000000000255e+03 2.783139999999999873e+03 7.920289999999999964e+02 2.783139999999999873e+03 -8.769399999999999636e+03
-2.835570000000000073e+04 4.646699999999999818e+03 -2.069960000000000036e+03 4.646699999999999818e+03 -2.248870000000000073e+04 8.679370000000000800e+03 -2.069960000000000036e+03 8.679370000000000800e+03 -3.267770000000000073e+04
-2.863490000000000146e+04 1.230820000000000073e+04 1.419029999999999927e+04 1.230820000000000073e+04 -2.126229999999999927e+04 3.185619999999999891e+03 1.419029999999999927e+04 3.185619999999999891e+03 -3.591659999999999854e+04
-1.838000000000000000e+04 -1.017850000000000000e+04 -1.370750000000000000e+03 -1.017850000000000000e+04 -4.139380000000000291e+04 -5.722210000000000036e+03 -1.370750000000000000e+03 -5.722210000000000036e+03 3.212099999999999909e+03
-4.099059999999999854e+04 3.830690000000000055e+03 -5.547439999999999600e+03 3.830690000000000055e+03 -5.033080000000000291e+04 -2.149539999999999964e+03 -5.547439999999999600e+03 -2.149539999999999964e+03 -4.579380000000000291e+04
-3.719009999999999854e+04 3.975739999999999782e+03 -8.300569999999999709e+03 3.975739999999999782e+03 -3.591850000000000000e+04 -8.397219999999999345e+03 -8.300569999999999709e+03 -8.397219999999999345e+03 -4.000230000000000291e+04
-1.896459999999999854e+04 8.936809999999999491e+03 -1.331029999999999927e+04 8.936809999999999491e+03 -6.763139999999999418e+04 6.536890000000000327e+03 -1.331029999999999927e+04 6.536890000000000327e+03 -3.124879999999999927e+04
-4.348119999999999709e+04 1.791970000000000073e+04 -3.458509999999999991e+02 1.791970000000000073e+04 -5.305880000000000291e+04 8.053279999999999745e+03 -3.458509999999999991e+02 8.053279999999999745e+03 -3.771140000000000146e+04
-1.981290000000000146e+04 1.212820000000000073e+04 1.350379999999999927e+04 1.212820000000000073e+04 -2.201820000000000073e+04 9.709719999999999345e+03 1.350379999999999927e+04 9.709719999999999345e+03 -1.233379999999999927e+04
-2.076859999999999854e+04 -5.109060000000000400e+03 2.473769999999999982e+03 -5.109060000000000400e+03 -6.095710000000000036e+03 5.696609999999999673e+03 2.473769999999999982e+03 5.696609999999999673e+03 -2.412500000000000000e+04
-3.533800000000000000e+04 -1.268660000000000082e+03 4.561520000000000437e+03 -1.268660000000000082e+03 -2.906379999999999927e+04 -9.232200000000000728e+03 4.561520000000000437e+03 -9.232200000000000728e+03 -3.268200000000000000e+04
-3.413230000000000291e+04 8.040630000000000109e+03 9.205579999999999927e+03 8.040630000000000109e+03 -1.393910000000000036e+04 1.103960000000000036e+04 9.205579999999999927e+03 1.103960000000000036e+04 -4.371169999999999709e+04
-3.668540000000000146e+04 -1.280150000000000000e+04 2.014640000000000100e+03 -1.280150000000000000e+04 -5.084700000000000000e+04 8.555360000000000582e+03 2.014640000000000100e+03 8.555360000000000582e+03 -2.188940000000000146e+04
-3.197000000000000000e+04 1.041200000000000000e+04 6.365510000000000218e+03 1.041200000000000000e+04 -2.401540000000000146e+04 -2.642800000000000182e+03 6.365510000000000218e+03 -2.642800000000000182e+03 -7.240510000000000218e+03
-4.601440000000000146e+04 -1.063370000000000073e+04 -1.264250000000000000e+03 -1.063370000000000073e+04 -4.137930000000000291e+04 1.427539999999999964e+03 -1.264250000000000000e+03 1.427539999999999964e+03 -5.306259999999999854e+04
-6.894539999999999418e+04 -1.315689999999999964e+04 -2.494950000000000045e+02 -1.315689999999999964e+04 -4.702309999999999854e+04 1.612009999999999991e+03 -2.494950000000000045e+02 1.612009999999999991e+03 -4.347440000000000146e+04
-1.567510000000000036e+04 8.021949999999999818e+03 -7.356579999999999927e+03 8.021949999999999818e+03 -2.625890000000000146e+04 -1.081100000000000000e+04 -7.356579999999999927e+03 -1.081100000000000000e+04 -1.404160000000000036e+04
-1.435379999999999927e+04 -2.987760000000000218e+03 -7.763619999999999891e+03 -2.987760000000000218e+03 -3.114100000000000000e+04 1.276160000000000082e+03 -7.763619999999999891e+03 1.276160000000000082e+03 -3.310869999999999709e+04
-3.796369999999999709e+04 -4.377930000000000064e+02 1.440420000000000073e+04 -4.377930000000000064e+02 -2.469929999999999927e+04 -4.717749999999999773e+02 1.440420000000000073e+04 -4.717749999999999773e+02 -8.988590000000000146e+03
-1.614389999999999964e+04 -4.260250000000000000e+03 -1.131260000000000048e+02 -4.260250000000000000e+03 -5.741290000000000146e+04 -5.395919999999999845e+02 -1.131260000000000048e+02 -5.395919999999999845e+02 -3.644569999999999709e+04
-2.726190000000000146e+04 -2.103500000000000000e+03 3.365389999999999873e+03 -2.103500000000000000e+03 -1.894679999999999927e+04 -3.351120000000000232e+02 3.365389999999999873e+03 -3.351120000000000232e+02 -1.390010000000000036e+04
-1.546839999999999964e+04 -9.217789999999999964e+02 -8.071819999999999709e+03 -9.217789999999999964e+02 3.473809999999999945e+03 -3.337730000000000018e+03 -8.071819999999999709e+03 -3.337730000000000018e+03 -8.045920000000000073e+03
-1.586429999999999927e+04 -2.963199999999999818e+03 -3.678440000000000055e+03 -2.963199999999999818e+03 -1.726750000000000000e+04 -5.778699999999999818e+03 -3.678440000000000055e+03 -5.778699999999999818e+03 -3.049450000000000000e+04
-1.568889999999999964e+04 8.325719999999999345e+03 5.042569999999999709e+03 8.325719999999999345e+03 -2.578609999999999854e+04 7.431750000000000000e+03 5.042569999999999709e+03 7.431750000000000000e+03 -2.027720000000000073e+04
-5.299819999999999709e+04 1.128020000000000073e+04 -6.703710000000000036e+03 1.128020000000000073e+04 -2.998209999999999854e+04 1.901870000000000073e+04 -6.703710000000000036e+03 1.901870000000000073e+04 -3.606530000000000291e+04
-2.990840000000000146e+04 -8.693489999999999782e+03 -4.881479999999999563e+03 -8.693489999999999782e+03 -5.852440000000000146e+04 2.704869999999999891e+03 -4.881479999999999563e+03 2.704869999999999891e+03 -2.258500000000000000e+04
-3.118100000000000000e+04 1.024579999999999927e+04 7.206820000000000164e+02 1.024579999999999927e+04 -3.194800000000000000e+04 4.550199999999999818e+03 7.206820000000000164e+02 4.550199999999999818e+03 -3.632080000000000291e+04
-3.855550000000000000e+04 -3.425849999999999909e+03 4.487819999999999709e+03 -3.425849999999999909e+03 -6.503540000000000146e+04 8.156550000000000182e+03 4.487819999999999709e+03 8.156550000000000182e+03 -5.644900000000000000e+04
-1.009570000000000073e+04 4.904729999999999563e+03 -8.313370000000000800e+03 4.904729999999999563e+03 -2.212700000000000000e+04 -7.642550000000000182e+03 -8.313370000000000800e+03 -7.642550000000000182e+03 -3.607530000000000200e+03
-9.983340000000000146e+03 -6.839789999999999964e+03 1.725579999999999927e+03 -6.839789999999999964e+03 -8.275409999999999854e+03 3.402760000000000218e+03 1.725579999999999927e+03 3.402760000000000218e+03 -2.781840000000000146e+04
-1.313379999999999927e+04 1.629809999999999945e+03 3.050429999999999836e+03 1.629809999999999945e+03 -2.064809999999999854e+04 8.606110000000000582e+03 3.050429999999999836e+03 8.606110000000000582e+03 -2.401390000000000146e+04
-3.838340000000000146e+04 -6.250909999999999854e+03 -9.761940000000000509e+03 -6.250909999999999854e+03 -3.007050000000000000e+04 -5.664100000000000364e+03 -9.761940000000000509e+03 -5.664100000000000364e+03 -5.353419999999999709e+04
-1.724150000000000000e+04 -1.790890000000000100e+03 -8.830890000000000555e+02 -1.790890000000000100e+03 -2.993429999999999927e+04 -1.425289999999999964e+04 -8.830890000000000555e+02 -1.425289999999999964e+04 -2.229229999999999927e+04
-2.705140000000000146e+04 2.089729999999999927e+04 -2.020819999999999936e+03 2.089729999999999927e+04 -2.766629999999999927e+04 1.342210000000000036e+03 -2.020819999999999936e+03 1.342210000000000036e+03 -4.625709999999999854e+04
-3.746500000000000000e+04 -5.771930000000000291e+03 1.211210000000000036e+04 -5.771930000000000291e+03 -1.919920000000000073e+04 4.279670000000000073e+03 1.211210000000000036e+04 4.279670000000000073e+03 -3.562400000000000000e+04
-3.780430000000000291e+04 1.115810000000000036e+04 -2.448760000000000218e+03 1.115810000000000036e+04 -2.250250000000000000e+04 4.318939999999999600e+03 -2.448760000000000218e+03 4.318939999999999600e+03 -2.818320000000000073e+04
-6.528759999999999854e+04 -1.257170000000000073e+04 -4.696279999999999745e+03 -1.257170000000000073e+04 -3.072259999999999854e+04 -2.943630000000000109e+03 -4.696279999999999745e+03 -2.943630000000000109e+03 -5.430590000000000146e+04
-3.274820000000000073e+04 -3.362889999999999873e+03 6.466430000000000291e+03 -3.362889999999999873e+03 -4.871130000000000291e+04 1.686740000000000009e+03 6.466430000000000291e+03 1.686740000000000009e+03 -5.215959999999999854e+04
-4.254600000000000000e+04 -5.089940000000000282e+02 1.295300000000000000e+04 -5.089940000000000282e+02 -6.019540000000000146e+04 -2.700460000000000036e+03 1.295300000000000000e+04 -2.700460000000000036e+03 -3.919119999999999709e+04
-1.950420000000000073e+04 -1.056289999999999964e+04 5.641000000000000000e+03 -1.056289999999999964e+04 -1.354610000000000036e+04 1.794720000000000027e+03 5.641000000000000000e+03 1.794720000000000027e+03 -2.457570000000000073e+04
-3.639669999999999709e+04 -7.103109999999999673e+03 -8.995360000000000582e+03 -7.103109999999999673e+03 -4.188959999999999854e+04 1.900809999999999854e+04 -8.995360000000000582e+03 1.900809999999999854e+04 -3.850569999999999709e+04
-3.710859999999999854e+04 9.508030000000000655e+03 6.557039999999999964e+03 9.508030000000000655e+03 -3.415569999999999709e+04 5.898880000000000109e+03 6.557039999999999964e+03 5.898880000000000109e+03 -3.468530000000000291e+04
-3.883609999999999854e+04 6.812569999999999482e+02 -7.122970000000000255e+02 6.812569999999999482e+02 -5.009719999999999709e+04 -2.800199999999999818e+03 -7.122970000000000255e+02 -2.800199999999999818e+03 -3.678659999999999854e+04
-3.477840000000000146e+04 5.824590000000000146e+03 8.658629999999999200e+03 5.824590000000000146e+03 -2.771320000000000073e+04 -1.207429999999999927e+04 8.658629999999999200e+03 -1.207429999999999927e+04 -2.898320000000000073e+04
-3.393500000000000000e+04 1.239380000000000109e+03 -2.321949999999999818e+03 1.239380000000000109e+03 -1.598239999999999964e+04 -1.233379999999999927e+04 -2.321949999999999818e+03 -1.233379999999999927e+04 -2.474300000000000000e+04
-2.826490000000000146e+04 2.500690000000000055e+03 2.519079999999999927e+03 2.500690000000000055e+03 -2.287690000000000146e+04 -7.333329999999999700e+02 2.519079999999999927e+03 -7.333329999999999700e+02 -2.913720000000000073e+04
-2.529629999999999927e+04 -1.262480000000000018e+03 -1.022220000000000073e+04 -1.262480000000000018e+03 -3.264020000000000073e+04 8.737770000000000437e+03 -1.022220000000000073e+04 8.737770000000000437e+03 -4.871319999999999709e+04
2.164989999999999782e+03 1.015270000000000073e+04 1.031670000000000073e+03 1.015270000000000073e+04 -2.817820000000000073e+04 8.407219999999999345e+03 1.031670000000000073e+03 8.407219999999999345e+03 -1.856520000000000073e+04
-3.059929999999999927e+04 4.828529999999999745e+03 5.138479999999999563e+02 4.828529999999999745e+03 -2.236450000000000000e+04 7.958540000000000703e+01 5.138479999999999563e+02 7.958540000000000703e+01 7.277729999999999563e+03
-2.140420000000000073e+04 3.782000000000000000e+03 1.363710000000000036e+04 3.782000000000000000e+03 -2.503290000000000146e+04 5.639970000000000255e+03 1.363710000000000036e+04 5.639970000000000255e+03 -1.853459999999999854e+04
-1.992520000000000073e+04 1.003600000000000000e+04 3.101480000000000018e+03 1.003600000000000000e+04 -2.777740000000000146e+04 -6.742109999999999673e+03 3.101480000000000018e+03 -6.742109999999999673e+03 -2.684090000000000146e+04
-2.817540000000000146e+04 -2.101289999999999964e+03 -7.910729999999999563e+03 -2.101289999999999964e+03 -2.020409999999999854e+04 -2.596309999999999945e+03 -7.910729999999999563e+03 -2.596309999999999945e+03 -5.973880000000000291e+04
-3.415219999999999709e+04 -1.785299999999999955e+03 -1.796840000000000146e+04 -1.785299999999999955e+03 -2.965479999999999927e+04 2.126000000000000000e+03 -1.796840000000000146e+04 2.126000000000000000e+03 -1.896940000000000146e+04
-2.508820000000000073e+04 -5.353699999999999818e+03 -3.858789999999999964e+03 -5.353699999999999818e+03 -3.576269999999999709e+04 3.527360000000000127e+03 -3.858789999999999964e+03 3.527360000000000127e+03 -1.772779999999999927e+04
-4.108490000000000146e+04 -5.257930000000000291e+03 -1.328339999999999964e+04 -5.257930000000000291e+03 -4.432450000000000000e+04 -7.458819999999999709e+03 -1.328339999999999964e+04 -7.458819999999999709e+03 -3.552880000000000291e+04
-2.173209999999999854e+04 1.123889999999999964e+04 2.811530000000000200e+03 1.123889999999999964e+04 -2.363759999999999854e+04 2.624409999999999854e+03 2.811530000000000200e+03 2.624409999999999854e+03 -2.662920000000000073e+04
-2.664420000000000073e+04 -7.497800000000000182e+03 -7.267579999999999927e+03 -7.497800000000000182e+03 -4.647259999999999854e+04 1.787329999999999927e+04 -7.267579999999999927e+03 1.787329999999999927e+04 -4.423109999999999854e+04
-4.140330000000000291e+04 -1.277339999999999918e+03 3.550010000000000218e+03 -1.277339999999999918e+03 -2.353540000000000146e+04 -5.861079999999999927e+03 3.550010000000000218e+03 -5.861079999999999927e+03 -4.373980000000000291e+04
-4.235950000000000000e+04 -1.632400000000000000e+04 1.262260000000000036e+04 -1.632400000000000000e+04 -5.503319999999999709e+04 -1.131029999999999927e+04 1.262260000000000036e+04 -1.131029999999999927e+04 -3.748750000000000000e+04
-1.686809999999999854e+04 -8.781170000000000073e+03 8.231719999999999345e+03 -8.781170000000000073e+03 -3.348809999999999854e+04 -4.857060000000000400e+03 8.231719999999999345e+03 -4.857060000000000400e+03 -2.353640000000000146e+04
-1.694150000000000000e+04 -5.558180000000000291e+03 -8.394569999999999709e+03 -5.558180000000000291e+03 -2.483650000000000000e+04 2.606309999999999945e+03 -8.394569999999999709e+03 2.606309999999999945e+03 -2.009000000000000000e+04
-3.811700000000000000e+04 -8.274090000000000146e+03 -4.276579999999999927e+03 -8.274090000000000146e+03 -3.341680000000000291e+04 -8.589489999999999782e+03 -4.276579999999999927e+03 -8.589489999999999782e+03 -3.259870000000000073e+04
-2.207659999999999854e+04 9.310170000000000073e+03 -1.261879999999999927e+04 9.310170000000000073e+03 -1.327079999999999927e+04 -6.499529999999999745e+03 -1.261879999999999927e+04 -6.499529999999999745e+03 -2.780709999999999854e+04
-2.152279999999999927e+04 -2.339300000000000000e+04 -1.196140000000000100e+03 -2.339300000000000000e+04 -2.335590000000000146e+04 -2.189849999999999909e+03 -1.196140000000000100e+03 -2.189849999999999909e+03 -3.157470000000000073e+04
-1.838470000000000073e+04 -1.074200000000000000e+04 1.413870000000000073e+04 -1.074200000000000000e+04 -4.543669999999999709e+04 3.387750000000000000e+03 1.413870000000000073e+04 3.387750000000000000e+03 -1.850929999999999927e+04
-3.589200000000000000e+04 -3.333320000000000164e+03 -2.951570000000000164e+03 -3.333320000000000164e+03 -1.664159999999999854e+04 -5.459180000000000064e+02 -2.951570000000000164e+03 -5.459180000000000064e+02 -1.199489999999999964e+04
-1.038300000000000000e+04 -1.075760000000000036e+04 5.421810000000000400e+03 -1.075760000000000036e+04 -2.839140000000000146e+04 -1.185250000000000000e+03 5.421810000000000400e+03 -1.185250000000000000e+03 -3.629990000000000146e+04
-2.929640000000000146e+04 -1.512859999999999900e+03 -2.029059999999999854e+04 -1.512859999999999900e+03 -4.506890000000000146e+04 -2.776219999999999800e+03 -2.029059999999999854e+04 -2.776219999999999800e+03 -1.777859999999999854e+04
-4.374230000000000291e+04 -8.791169999999999618e+02 6.336819999999999709e+03 -8.791169999999999618e+02 -3.099850000000000000e+04 -4.097989999999999782e+03 6.336819999999999709e+03 -4.097989999999999782e+03 -3.331790000000000146e+04
-3.647340000000000146e+04 -1.123360000000000036e+04 -3.351269999999999982e+03 -1.123360000000000036e+04 -2.267140000000000146e+04 -9.645579999999999927e+03 -3.351269999999999982e+03 -9.645579999999999927e+03 -3.960469999999999709e+04
-3.693480000000000291e+04 4.647579999999999927e+03 8.249670000000000073e+03 4.647579999999999927e+03 -2.801570000000000073e+04 -7.512810000000000400e+03 8.249670000000000073e+03 -7.512810000000000400e+03 -3.107570000000000073e+04
-1.509300000000000000e+04 -3.304049999999999727e+02 -1.074870000000000073e+04 -3.304049999999999727e+02 -1.466920000000000073e+04 8.929460000000000264e+01 -1.074870000000000073e+04 8.929460000000000264e+01 -3.095709999999999854e+04
-3.537890000000000146e+04 -4.179189999999999600e+03 9.400639999999999418e+03 -4.179189999999999600e+03 -5.048700000000000000e+04 3.612829999999999927e+03 9.400639999999999418e+03 3.612829999999999927e+03 -3.860859999999999854e+04
-3.271150000000000000e+04 -8.441059999999999491e+03 -2.827269999999999982e+03 -8.441059999999999491e+03 -1.333729999999999927e+04 1.228979999999999927e+04 -2.827269999999999982e+03 1.228979999999999927e+04 -2.759029999999999927e+04
-2.990500000000000000e+04 -5.816649999999999636e+03 8.063279999999999745e+03 -5.816649999999999636e+03 -1.519180000000000064e+03 -1.380170000000000073e+03 8.063279999999999745e+03 -1.380170000000000073e+03 -2.066529999999999927e+04
-7.482649999999999636e+03 1.427610000000000036e+04 1.968599999999999909e+03 1.427610000000000036e+04 -1.105160000000000036e+04 5.174079999999999927e+03 1.968599999999999909e+03 5.174079999999999927e+03 -1.726300000000000000e+04
-2.642209999999999854e+04 -2.125459999999999854e+04 1.286329999999999927e+04 -2.125459999999999854e+04 -2.536859999999999854e+04 2.570860000000000127e+03 1.286329999999999927e+04 2.570860000000000127e+03 -3.155290000000000146e+04
-4.210669999999999709e+04 4.099310000000000400e+03 -6.901869999999999891e+03 4.099310000000000400e+03 -3.179950000000000000e+04 1.517079999999999927e+04 -6.901869999999999891e+03 1.517079999999999927e+04 -4.693890000000000146e+04
-3.999040000000000146e+04 -9.829759999999999991e+02 -4.289229999999999563e+03 -9.829759999999999991e+02 -2.822409999999999854e+04 1.252329999999999927e+03 -4.289229999999999563e+03 1.252329999999999927e+03 -1.985179999999999927e+04
-2.475609999999999854e+04 9.308409999999999854e+03 -7.342010000000000218e+03 9.308409999999999854e+03 -6.132050000000000000e+04 6.474369999999999891e+03 -7.342010000000000218e+03 6.474369999999999891e+03 -4.975690000000000146e+04
-1.560450000000000000e+04 -1.432760000000000036e+04 1.323689999999999964e+04 -1.432760000000000036e+04 -3.466750000000000000e+04 -1.117510000000000036e+04 1.323689999999999964e+04 -1.117510000000000036e+04 -4.723459999999999854e+04
-3.769980000000000291e+04 -6.160289999999999964e+03 -1.509920000000000073e+03 -6.160289999999999964e+03 -2.455540000000000146e+04 -1.013060000000000036e+04 -1.509920000000000073e+03 -1.013060000000000036e+04 -3.391240000000000146e+04
-5.764059999999999854e+04 -4.886630000000000109e+03 7.310970000000000255e+03 -4.886630000000000109e+03 -3.147700000000000000e+04 4.176840000000000146e+03 7.310970000000000255e+03 4.176840000000000146e+03 -1.213229999999999927e+04
-9.325909999999999854e+03 1.732400000000000000e+04 6.806539999999999964e+03 1.732400000000000000e+04 -2.244650000000000000e+04 3.404369999999999891e+03 6.806539999999999964e+03 3.404369999999999891e+03 2.903619999999999891e+03
-1.832659999999999854e+04 -1.376930000000000064e+03 -5.282500000000000000e+03 -1.376930000000000064e+03 -3.164129999999999927e+04 -9.988930000000000291e+03 -5.282500000000000000e+03 -9.988930000000000291e+03 -2.022179999999999927e+04
-4.008800000000000000e+04 1.901579999999999927e+04 4.556819999999999709e+03 1.901579999999999927e+04 -2.377929999999999927e+04 -6.282390000000000327e+03 4.556819999999999709e+03 -6.282390000000000327e+03 -3.976840000000000146e+04
-5.391490000000000146e+04 4.228770000000000437e+03 2.506130000000000109e+03 4.228770000000000437e+03 -3.053150000000000000e+04 7.484859999999999900e+02 2.506130000000000109e+03 7.484859999999999900e+02 -5.084569999999999709e+04
-1.397639999999999964e+04 -2.074220000000000041e+01 -8.142869999999999891e+03 -2.074220000000000041e+01 -5.183950000000000000e+04 -1.497689999999999964e+04 -8.142869999999999891e+03 -1.497689999999999964e+04 -3.119779999999999927e+04
-3.218429999999999927e+04 -8.763520000000000437e+03 3.556920000000000073e+03 -8.763520000000000437e+03 -2.761890000000000146e+04 3.031900000000000091e+03 3.556920000000000073e+03 3.031900000000000091e+03 -2.690059999999999854e+04
-2.764779999999999927e+04 2.030680000000000064e+03 -6.141760000000000218e+03 2.030680000000000064e+03 -2.495390000000000146e+04 -4.219350000000000364e+03 -6.141760000000000218e+03 -4.219350000000000364e+03 -2.022570000000000073e+04
-4.171530000000000291e+04 -4.467670000000000073e+03 2.111509999999999854e+04 -4.467670000000000073e+03 -4.168950000000000000e+04 -7.225210000000000036e+03 2.111509999999999854e+04 -7.225210000000000036e+03 -3.542259999999999854e+04
-4.356740000000000146e+04 -2.985260000000000218e+03 1.030370000000000073e+04 -2.985260000000000218e+03 -2.680029999999999927e+04 6.120279999999999745e+03 1.030370000000000073e+04 6.120279999999999745e+03 -4.223319999999999709e+04
-3.073620000000000073e+04 9.945379999999999200e+03 -6.512319999999999709e+03 9.945379999999999200e+03 -3.161000000000000000e+04 9.104370000000000800e+03 -6.512319999999999709e+03 9.104370000000000800e+03 -4.296950000000000000e+04
-3.145050000000000000e+04 7.722880000000000109e+03 2.757829999999999927e+03 7.722880000000000109e+03 -3.827150000000000000e+04 1.652759999999999854e+04 2.757829999999999927e+03 1.652759999999999854e+04 -2.190170000000000073e+04
-1.078520000000000073e+04 6.733720000000000255e+03 -3.869820000000000164e+03 6.733720000000000255e+03 -1.573439999999999964e+04 2.068929999999999836e+03 -3.869820000000000164e+03 2.068929999999999836e+03 -2.614200000000000000e+04
-1.529860000000000036e+04 -1.101400000000000000e+04 -2.444050000000000182e+03 -1.101400000000000000e+04 -1.945000000000000000e+04 -6.314460000000000036e+03 -2.444050000000000182e+03 -6.314460000000000036e+03 -8.565510000000000218e+03
-3.320950000000000000e+04 -1.067839999999999964e+04 4.848390000000000327e+03 -1.067839999999999964e+04 -1.440529999999999927e+04 -2.911269999999999982e+03 4.848390000000000327e+03 -2.911269999999999982e+03 -1.108110000000000036e+04
-1.755259999999999854e+04 -3.746690000000000055e+03 6.859060000000000400e+03 -3.746690000000000055e+03 -2.780940000000000146e+04 1.086099999999999909e+03 6.859060000000000400e+03 1.086099999999999909e+03 -3.151540000000000146e+04
-2.767479999999999927e+04 -9.702510000000000218e+03 -9.196020000000000437e+03 -9.702510000000000218e+03 -1.948559999999999854e+04 -5.292359999999999673e+03 -9.196020000000000437e+03 -5.292359999999999673e+03 -1.780150000000000000e+04
-3.498550000000000000e+04 4.948420000000000073e+03 -5.373270000000000437e+03 4.948420000000000073e+03 -2.496559999999999854e+04 -4.334680000000000291e+03 -5.373270000000000437e+03 -4.334680000000000291e+03 -3.594719999999999709e+04
-2.201720000000000073e+04 -4.010160000000000196e+02 6.034960000000000036e+03 -4.010160000000000196e+02 4.699949999999999818e+03 4.269810000000000400e+03 6.034960000000000036e+03 4.269810000000000400e+03 -1.056879999999999927e+04
-2.712859999999999854e+04 -4.285840000000000146e+03 -1.001950000000000045e+03 -4.285840000000000146e+03 -3.089590000000000146e+04 -7.218439999999999600e+03 -1.001950000000000045e+03 -7.218439999999999600e+03 -8.144189999999999600e+03
-2.901940000000000146e+04 -3.137369999999999891e+03 -5.488750000000000000e+03 -3.137369999999999891e+03 -3.294319999999999709e+04 -1.208789999999999964e+04 -5.488750000000000000e+03 -1.208789999999999964e+04 -4.745700000000000000e+04
-3.387440000000000146e+04 -8.898559999999999945e+02 -2.857130000000000109e+03 -8.898559999999999945e+02 -3.541300000000000000e+04 -9.380930000000000291e+03 -2.857130000000000109e+03 -9.380930000000000291e+03 -3.994890000000000146e+04
-2.351570000000000073e+04 4.981369999999999891e+03 1.719250000000000000e+03 4.981369999999999891e+03 -2.300520000000000073e+04 8.936810000000000400e+02 1.719250000000000000e+03 8.936810000000000400e+02 -2.119779999999999927e+04
-1.436129999999999927e+04 -4.041650000000000091e+03 -5.389739999999999782e+03 -4.041650000000000091e+03 -1.444810000000000036e+04 -5.041979999999999563e+03 -5.389739999999999782e+03 -5.041979999999999563e+03 -3.650900000000000000e+04
-3.520290000000000146e+04 -2.066280000000000200e+03 1.572880000000000109e+03 -2.066280000000000200e+03 -5.181559999999999854e+04 -4.605510000000000218e+03 1.572880000000000109e+03 -4.605510000000000218e+03 -2.850570000000000073e+04
-1.592770000000000073e+04 -1.080950000000000045e+03 5.670869999999999891e+03 -1.080950000000000045e+03 -3.149270000000000073e+04 -6.695029999999999745e+03 5.670869999999999891e+03 -6.695029999999999745e+03 -2.613979999999999927e+04
-4.247680000000000291e+04 -3.450710000000000036e+03 9.290750000000000000e+03 -3.450710000000000036e+03 -3.994500000000000000e+04 1.236179999999999927e+04 9.290750000000000000e+03 1.236179999999999927e+04 -3.999069999999999709e+04
-2.594850000000000000e+04 2.104090000000000146e+03 1.056650000000000000e+04 2.104090000000000146e+03 -1.320529999999999927e+04 8.532260000000000218e+03 1.056650000000000000e+04 8.532260000000000218e+03 -2.311600000000000000e+04
-2.646550000000000000e+04 6.867300000000000182e+03 -5.927569999999999709e+03 6.867300000000000182e+03 -1.571079999999999927e+04 -1.308079999999999927e+03 -5.927569999999999709e+03 -1.308079999999999927e+03 -2.055920000000000073e+04
-3.231429999999999927e+04 -5.982289999999999964e+03 -2.555119999999999891e+03 -5.982289999999999964e+03 -4.129880000000000291e+04 3.027780000000000200e+03 -2.555119999999999891e+03 3.027780000000000200e+03 -4.584250000000000000e+04
-3.641819999999999709e+04 -7.076630000000000109e+03 -7.251689999999999600e+03 -7.076630000000000109e+03 -2.116409999999999854e+04 2.228829999999999927e+03 -7.251689999999999600e+03 2.228829999999999927e+03 -2.588659999999999854e+04
-2.379940000000000146e+04 -1.132730000000000018e+03 4.080779999999999745e+02 -1.132730000000000018e+03 -2.951340000000000146e+04 -1.199139999999999964e+04 4.080779999999999745e+02 -1.199139999999999964e+04 -1.948920000000000073e+04
-2.763420000000000073e+04 -8.465479999999999563e+03 -3.300219999999999800e+03 -8.465479999999999563e+03 -2.480490000000000146e+04 -6.146169999999999618e+02 -3.300219999999999800e+03 -6.146169999999999618e+02 -3.583200000000000000e+04
-3.417980000000000291e+04 -6.402289999999999964e+03 4.388380000000000109e+03 -6.402289999999999964e+03 -1.474239999999999964e+04 1.796920000000000073e+03 4.388380000000000109e+03 1.796920000000000073e+03 -3.063509999999999854e+04