-3.007753670000000056e+04
-3.007287600000000020e+04
-3.007941660000000047e+04
-3.007743779999999970e+04
-3.007521449999999822e+04
-3.007675379999999859e+04
-3.007930350000000180e+04
-3.007337050000000090e+04
-3.007761249999999927e+04
-3.007501090000000113e+04
-3.007427730000000156e+04
-3.007847880000000077e+04
-3.007875809999999910e+04
-3.007772390000000087e+04
-3.007646380000000136e+04
-3.007637050000000090e+04
-3.007663390000000072e+04
-3.007677799999999843e+04
-3.007541149999999834e+04
-3.007903779999999824e+04
-3.007713580000000002e+04
-3.007831480000000010e+04
-3.007636279999999897e+04
-3.007603600000000006e+04
-3.007531599999999889e+04
-3.007615369999999893e+04
-3.007929899999999907e+04
-3.007726090000000113e+04
-3.007752230000000054e+04
-3.007561040000000139e+04
-3.007850010000000111e+04
-3.007897810000000027e+04
-3.007784720000000016e+04
-3.007566340000000127e+04
-3.007973600000000079e+04
-3.008060710000000108e+04
-3.007778840000000127e+04
-3.007852309999999852e+04
-3.007788320000000022e+04
-3.008305440000000090e+04
-3.007448960000000079e+04
-3.007673589999999967e+04
-3.007482949999999983e+04
-3.007888750000000073e+04
-3.007774100000000180e+04
-3.007724320000000080e+04
-3.007855429999999978e+04
-3.007899150000000009e+04
-3.007888790000000154e+04
-3.007665620000000126e+04
-3.008035420000000158e+04
-3.007787719999999899e+04
-3.007252850000000035e+04
-3.007831090000000040e+04
-3.007864389999999912e+04
-3.007479130000000077e+04
-3.008024060000000100e+04
-3.007943839999999909e+04
-3.007681539999999950e+04
-3.008024320000000080e+04
-3.007721419999999853e+04
-3.007902699999999822e+04
-3.008107900000000154e+04
-3.008149789999999848e+04
-3.008019830000000002e+04
-3.007671069999999963e+04
-3.007844159999999829e+04
-3.008044540000000052e+04
-3.007850909999999931e+04
-3.007703459999999905e+04
-3.007498979999999938e+04
-3.007699620000000141e+04
-3.007903879999999845e+04
-3.008059049999999843e+04
-3.007524680000000080e+04
-3.007763039999999819e+04
-3.007522859999999855e+04
-3.007641820000000007e+04
-3.007599150000000009e+04
-3.007858369999999923e+04
-3.007769529999999941e+04
-3.007596059999999852e+04
-3.007746039999999994e+04
-3.007631869999999981e+04
-3.007605350000000180e+04
-3.007744069999999920e+04
-3.007821519999999873e+04
-3.008132500000000073e+04
-3.007783529999999882e+04
-3.007645690000000104e+04
-3.008108959999999934e+04
-3.007938739999999962e+04
-3.007575249999999869e+04
-3.007438560000000143e+04
-3.006830570000000080e+04
-3.007650440000000162e+04
-3.007728129999999874e+04
-3.007561739999999918e+04
-3.008089749999999913e+04
-3.008004460000000108e+04
-3.007570369999999821e+04
-3.007176759999999922e+04
-3.007405419999999867e+04
-3.007314029999999912e+04
-3.007710810000000129e+04
-3.007545780000000013e+04
-3.007744599999999991e+04
-3.008010619999999835e+04
-3.007582969999999841e+04
-3.007523660000000018e+04
-3.007558589999999822e+04
-3.007523010000000068e+04
-3.007680619999999908e+04
-3.008066589999999997e+04
-3.007823489999999947e+04
-3.008114170000000013e+04
-3.007728519999999844e+04
-3.007446740000000136e+04
-3.007626580000000104e+04
-3.007820679999999993e+04
-3.008123540000000139e+04
-3.007724520000000120e+04
-3.007627219999999943e+04
-3.007648760000000038e+04
-3.007256019999999990e+04
-3.007859630000000107e+04
-3.007839809999999852e+04
-3.007799209999999948e+04
-3.007440750000000116e+04
-3.007514199999999983e+04
-3.007907070000000022e+04
-3.007658740000000034e+04
-3.008076710000000094e+04
-3.007658299999999872e+04
-3.007808870000000024e+04
-3.007527319999999963e+04
-3.007986140000000159e+04
-3.007878210000000036e+04
-3.007807089999999880e+04
-3.007657270000000062e+04
-3.007876940000000104e+04
-3.007676399999999921e+04
-3.008119299999999930e+04
-3.007870300000000134e+04
-3.007929049999999916e+04
-3.007657700000000114e+04
-3.007579820000000109e+04
-3.007629089999999997e+04
-3.007636990000000151e+04
-3.007443939999999930e+04
-3.007727149999999892e+04
-3.008064730000000054e+04
-3.008175389999999970e+04
-3.007781910000000062e+04
-3.007807059999999910e+04
-3.007666300000000047e+04
-3.007744670000000042e+04
-3.007865420000000086e+04
-3.007620650000000023e+04
-3.007761119999999937e+04
-3.007706209999999919e+04
-3.008007300000000032e+04
-3.007804200000000128e+04
-3.007618219999999928e+04
-3.007860819999999876e+04
-3.007107560000000012e+04
-3.007719139999999970e+04
-3.007975649999999951e+04
-3.007902089999999953e+04
-3.008237139999999999e+04
-3.007986950000000070e+04
-3.007699889999999868e+04
-3.007942350000000079e+04
-3.007392870000000039e+04
-3.007949650000000111e+04
-3.007583910000000105e+04
-3.007587410000000091e+04
-3.007729780000000028e+04
-3.007792629999999917e+04
-3.007554539999999906e+04
-3.007363100000000122e+04
-3.007956509999999980e+04
-3.007895390000000043e+04
-3.007873689999999988e+04
-3.007231999999999971e+04
-3.007916660000000047e+04
-3.008004760000000169e+04
-3.007746540000000095e+04
-3.007757440000000133e+04
-3.007752980000000025e+04
-3.007632310000000143e+04
-3.008072590000000127e+04
-3.007887010000000009e+04
-3.007704630000000179e+04
-3.008414909999999873e+04
-3.007634800000000178e+04
-3.007669789999999921e+04
-3.007895769999999902e+04
-3.007673389999999927e+04
-3.007795590000000084e+04
-3.007627639999999883e+04
-3.008000800000000163e+04
-3.007333109999999942e+04
-3.007336579999999958e+04
-3.007659999999999854e+04
-3.007398670000000129e+04
-3.007863269999999829e+04
-3.007824910000000091e+04
-3.007944970000000103e+04
-3.007881339999999909e+04
-3.007842150000000038e+04
-3.008074190000000090e+04
-3.008065710000000036e+04
-3.008155080000000089e+04
-3.007584790000000066e+04
-3.007654920000000129e+04
-3.007635840000000098e+04
-3.007884800000000178e+04
-3.007951359999999841e+04
-3.007580949999999939e+04
-3.008098770000000150e+04
-3.007773289999999906e+04
-3.007450489999999991e+04
-3.007568639999999868e+04
-3.007680770000000120e+04
-3.007974460000000181e+04
-3.007801280000000042e+04
-3.007643679999999949e+04
-3.007401350000000093e+04
-3.007440369999999893e+04
-3.007901659999999902e+04
-3.008141649999999936e+04
-3.007728800000000047e+04
-3.007416070000000036e+04
-3.007677709999999934e+04
-3.007819110000000001e+04
-3.007960759999999937e+04
-3.007996740000000136e+04
-3.007817329999999856e+04
-3.007421940000000177e+04
-3.007989489999999932e+04
-3.007886119999999937e+04
-3.008051759999999922e+04
-3.007831499999999869e+04
-3.007856309999999939e+04
-3.008208510000000024e+04
-3.007784349999999904e+04
-3.007616770000000179e+04
-3.007461790000000110e+04
-3.007449120000000039e+04
-3.007500890000000072e+04
-3.007999039999999877e+04
-3.007814949999999953e+04
-3.007508629999999903e+04
-3.007715069999999832e+04
-3.008025519999999960e+04
-3.008293230000000040e+04
-3.007549970000000030e+04
-3.007889830000000075e+04
-3.007839960000000065e+04
-3.007779000000000087e+04
-3.007510280000000057e+04
-3.007391979999999967e+04
-3.007452539999999863e+04
-3.008087039999999979e+04
-3.007718140000000130e+04
-3.007522609999999986e+04
-3.008046429999999964e+04
-3.007656820000000153e+04
-3.007944090000000142e+04
-3.007625189999999930e+04
-3.007677460000000065e+04
-3.007949710000000050e+04
-3.007961330000000089e+04
-3.007577300000000105e+04
-3.007735250000000087e+04
-3.007953970000000118e+04
-3.007652860000000146e+04
-3.007827030000000013e+04
-3.008082159999999931e+04
-3.007829060000000027e+04
-3.007504339999999866e+04
-3.007357900000000154e+04
-3.008249610000000030e+04
-3.008185819999999876e+04
-3.007620809999999983e+04
-3.007385369999999966e+04
-3.007731000000000131e+04
-3.007483459999999832e+04
-3.007620279999999912e+04
-3.007660160000000178e+04
-3.007839080000000104e+04
-3.008083610000000044e+04
-3.007984700000000157e+04
-3.007637800000000061e+04
-3.007627699999999822e+04
-3.007508910000000105e+04
-3.007627560000000085e+04
-3.007619020000000091e+04
-3.007851190000000133e+04
-3.007987220000000161e+04
-3.007985039999999935e+04
-3.007616890000000058e+04
-3.007721489999999903e+04
-3.007740239999999903e+04
-3.007693790000000081e+04
-3.007715729999999894e+04
-3.007620030000000042e+04
-3.007599060000000100e+04
-3.007088399999999820e+04
-3.007277070000000094e+04
-3.007999659999999858e+04
-3.007642090000000098e+04
-3.007667139999999927e+04
-3.008077999999999884e+04
-3.007935450000000128e+04
-3.007549629999999888e+04
-3.007940850000000137e+04
-3.007256450000000041e+04
-3.007616990000000078e+04
-3.008015480000000025e+04
-3.007570060000000012e+04
-3.007828419999999824e+04
-3.007850159999999960e+04
-3.007476020000000062e+04
-3.007778450000000157e+04
-3.007555719999999928e+04
-3.007945019999999931e+04
-3.008044879999999830e+04
-3.007923199999999997e+04
-3.007976359999999841e+04
-3.007676540000000023e+04
-3.007460599999999977e+04
-3.007937689999999930e+04
-3.007409219999999914e+04
-3.008136469999999827e+04
-3.007855909999999858e+04
-3.007567390000000159e+04
-3.007950470000000132e+04
-3.007749230000000171e+04
-3.007844770000000062e+04
-3.007943690000000061e+04
-3.007651209999999992e+04
-3.007996050000000105e+04
-3.008063019999999960e+04
-3.007720569999999861e+04
-3.007994429999999920e+04
-3.007878090000000157e+04
-3.008054089999999997e+04
-3.007604880000000048e+04
-3.008096180000000095e+04
-3.007898410000000149e+04
-3.007846719999999914e+04
-3.007482640000000174e+04
-3.007773129999999946e+04
-3.007552130000000034e+04
-3.007555710000000181e+04
-3.008087350000000151e+04
-3.007794159999999829e+04
-3.007576559999999881e+04
-3.007671150000000125e+04
-3.007619519999999829e+04
-3.007940509999999995e+04
-3.007250200000000041e+04
-3.007278410000000076e+04
-3.007559370000000126e+04
-3.007513420000000042e+04
-3.007363880000000063e+04
-3.007440269999999873e+04
-3.008150820000000022e+04
-3.008045390000000043e+04
-3.007702240000000165e+04
-3.007922490000000107e+04
-3.008064340000000084e+04
-3.007400879999999961e+04
-3.007500409999999829e+04
-3.007567780000000130e+04
-3.007989029999999912e+04
-3.008094280000000072e+04
-3.007846089999999822e+04
-3.007856910000000062e+04
-3.007929950000000099e+04
-3.007370959999999832e+04
-3.007799740000000020e+04
-3.007672209999999905e+04
-3.008066300000000047e+04
-3.007923140000000058e+04
-3.007627669999999853e+04
-3.007561149999999907e+04
-3.007148689999999988e+04
-3.007573909999999887e+04
-3.007761709999999948e+04
-3.007928789999999935e+04
-3.007668070000000080e+04
-3.007849859999999899e+04
-3.007844770000000062e+04
-3.007993779999999970e+04
-3.007521549999999843e+04
-3.007688309999999910e+04
-3.008155719999999928e+04
-3.007645319999999992e+04
-3.007845550000000003e+04
-3.007311490000000049e+04
-3.007111240000000180e+04
-3.007612659999999960e+04
-3.008045030000000042e+04
-3.007576540000000023e+04
-3.007749069999999847e+04
-3.007493210000000181e+04
-3.007828180000000066e+04
-3.007524060000000100e+04
-3.007744410000000062e+04
-3.007694090000000142e+04
-3.007729430000000139e+04
-3.007717900000000009e+04
-3.007748589999999967e+04
-3.007742889999999898e+04
-3.007436890000000130e+04
-3.007916340000000127e+04
-3.007576099999999860e+04
-3.007930470000000059e+04
-3.007992120000000068e+04
-3.007347520000000077e+04
-3.007780169999999998e+04
-3.007660650000000169e+04
-3.007767380000000048e+04
-3.007783299999999872e+04
-3.007670030000000042e+04
-3.007988170000000173e+04
-3.007369900000000052e+04
-3.007370000000000073e+04
-3.008152520000000004e+04
-3.007943419999999969e+04
-3.007600560000000041e+04
-3.007759389999999985e+04
-3.007807719999999972e+04
-3.008242610000000059e+04
-3.007899850000000151e+04
-3.007868579999999929e+04
-3.007730380000000150e+04
-3.007479699999999866e+04
-3.007614879999999903e+04
-3.007395040000000154e+04
-3.007959519999999975e+04
-3.007579690000000119e+04
-3.007806820000000153e+04
-3.007904320000000007e+04
-3.008082800000000134e+04
-3.007635109999999986e+04
-3.007672850000000108e+04
-3.007558320000000094e+04
-3.007442629999999917e+04
-3.007958399999999892e+04
-3.008164340000000084e+04
-3.008145679999999993e+04
-3.007872070000000167e+04
-3.007860670000000027e+04
-3.008160050000000047e+04
-3.007801919999999882e+04
-3.007752219999999943e+04
-3.007884340000000157e+04
-3.007637730000000010e+04
-3.007490409999999974e+04
-3.007397620000000097e+04
-3.007851429999999891e+04
-3.007175170000000071e+04
-3.007646389999999883e+04
-3.008042160000000149e+04
-3.007427950000000055e+04
-3.007976740000000063e+04
-3.008270390000000043e+04
-3.007856360000000132e+04
-3.008099699999999939e+04
-3.007766670000000158e+04
-3.008249539999999979e+04
-3.007813820000000123e+04
-3.007508510000000024e+04
-3.007393149999999878e+04
-3.007905689999999959e+04
-3.007744250000000102e+04
-3.007879109999999855e+04
-3.007952509999999893e+04
-3.007779309999999896e+04
-3.007582280000000173e+04
-3.007662649999999849e+04
-3.007428059999999823e+04
-3.007835440000000017e+04
-3.007897490000000107e+04
-3.007522660000000178e+04
-3.007837670000000071e+04
-3.007885280000000057e+04
-3.007958369999999923e+04
-3.007576489999999831e+04
-3.007724750000000131e+04
-3.007966579999999885e+04
-3.007666730000000098e+04
-3.007503069999999934e+04
-3.007738880000000063e+04
-3.008107909999999902e+04
-3.007794949999999881e+04
-3.007711049999999886e+04
-3.007705710000000181e+04
-3.007389600000000064e+04
-3.007809309999999823e+04
-3.007879799999999886e+04
-3.007465880000000107e+04
-3.008082249999999840e+04
-3.007851729999999952e+04
-3.007636100000000079e+04
-3.008167369999999937e+04
-3.007487960000000021e+04
-3.007494810000000143e+04
-3.007671549999999843e+04
-3.007939219999999841e+04
-3.007901699999999983e+04
-3.007722889999999825e+04
-3.008089300000000003e+04
-3.007609000000000015e+04
-3.008020160000000033e+04
-3.008037689999999930e+04
-3.007206620000000112e+04
-3.008067390000000159e+04
-3.008137619999999879e+04
-3.007889549999999872e+04
-3.007708740000000034e+04
-3.007886820000000080e+04
-3.008019989999999962e+04
-3.007936200000000099e+04
-3.007712730000000010e+04
-3.007765929999999935e+04
-3.006919120000000112e+04
-3.007763550000000032e+04
-3.007549490000000151e+04
-3.007497620000000097e+04
-3.007456409999999960e+04
-3.007950470000000132e+04
-3.007569559999999910e+04
-3.007886539999999877e+04
-3.007551750000000175e+04
-3.007908780000000115e+04
-3.007772060000000056e+04
-3.007567060000000129e+04
-3.007345599999999831e+04
-3.007616770000000179e+04
-3.007716210000000137e+04
-3.007551030000000173e+04
-3.007577010000000155e+04
-3.008110150000000067e+04
-3.007815729999999894e+04
-3.007883090000000084e+04
-3.007641259999999966e+04
-3.007868539999999848e+04
-3.007624959999999919e+04
-3.007700739999999860e+04
-3.008088810000000012e+04
-3.007687329999999929e+04
-3.007738599999999860e+04
-3.007787340000000040e+04
-3.007796220000000176e+04
-3.007702479999999923e+04
-3.007905489999999918e+04
-3.007574299999999857e+04
-3.007785389999999825e+04
-3.007850969999999870e+04
-3.007564800000000105e+04
-3.007767410000000018e+04
-3.007847560000000158e+04
-3.007655120000000170e+04
-3.007456810000000041e+04
-3.007974209999999948e+04
-3.007926359999999841e+04
-3.008458529999999882e+04
-3.007373540000000139e+04
-3.007858870000000024e+04
-3.007726949999999852e+04
-3.007961549999999988e+04
-3.008006139999999868e+04
-3.007911839999999938e+04
-3.007989089999999851e+04
-3.007675089999999909e+04
-3.007882540000000154e+04
-3.008026929999999993e+04
-3.007873479999999836e+04
-3.007954520000000048e+04
-3.007517520000000150e+04
-3.007605700000000070e+04
-3.007601280000000042e+04
-3.007674360000000161e+04
-3.007522269999999844e+04
-3.007528369999999995e+04
-3.007813039999999819e+04
-3.007434500000000116e+04
-3.007746189999999842e+04
-3.007111290000000008e+04
-3.007844670000000042e+04
-3.007684769999999844e+04
-3.007497149999999965e+04
-3.007476350000000093e+04
-3.007667569999999978e+04
-3.007526759999999922e+04
-3.008178269999999975e+04
-3.007638019999999960e+04
-3.007878849999999875e+04
-3.007867039999999906e+04
-3.007433580000000075e+04
-3.007949840000000040e+04
-3.007497260000000097e+04
-3.007549329999999827e+04
-3.007398099999999977e+04
-3.007337250000000131e+04
-3.007792620000000170e+04
-3.008006320000000051e+04
-3.007666809999999896e+04
-3.007586160000000018e+04
-3.007899629999999888e+04
-3.007747750000000087e+04
-3.007777779999999984e+04
-3.007514240000000063e+04
-3.007875649999999951e+04
-3.007933740000000034e+04
-3.007749460000000181e+04
-3.007643460000000050e+04
-3.007883130000000165e+04
-3.007600310000000172e+04
-3.007365919999999824e+04
-3.007913339999999880e+04
-3.007803519999999844e+04
-3.007647920000000158e+04
-3.007834490000000005e+04
-3.007025289999999950e+04
-3.007884760000000097e+04
-3.008100059999999939e+04
-3.007734219999999914e+04
-3.007320249999999942e+04
-3.007762410000000091e+04
-3.008125110000000132e+04
-3.007849160000000120e+04
-3.007652230000000054e+04
-3.007278269999999975e+04
-3.007839589999999953e+04
-3.007663239999999860e+04
-3.007754270000000179e+04
-3.007877820000000065e+04
-3.008154920000000129e+04
-3.007506720000000132e+04
-3.007615520000000106e+04
-3.008030979999999909e+04
-3.007634159999999974e+04
-3.007750579999999900e+04
-3.008045959999999832e+04
-3.007861850000000049e+04
-3.007676550000000134e+04
-3.007761679999999978e+04
-3.007672839999999997e+04
-3.007762359999999899e+04
-3.008069510000000082e+04
-3.007671800000000076e+04
-3.007582879999999932e+04
-3.007391760000000068e+04
-3.007885610000000088e+04
-3.007849680000000080e+04
-3.007633789999999863e+04
-3.007680700000000070e+04
-3.007659440000000177e+04
-3.007851369999999952e+04
-3.007462830000000031e+04
-3.007871619999999893e+04
-3.007987110000000030e+04
-3.007565330000000176e+04
-3.007592710000000079e+04
-3.007857379999999830e+04
-3.008059080000000176e+04
-3.007294910000000164e+04
-3.007941939999999886e+04
-3.007882739999999831e+04
-3.007997560000000158e+04
-3.008005340000000069e+04
-3.007997639999999956e+04
-3.007689449999999852e+04
-3.007698089999999866e+04
-3.007474220000000059e+04
-3.007781869999999981e+04
-3.007761560000000100e+04
-3.007601689999999871e+04
-3.007868340000000171e+04
-3.007463260000000082e+04
-3.007968210000000181e+04
-3.007736240000000180e+04
-3.007765750000000116e+04
-3.008048430000000008e+04
-3.007645400000000154e+04
-3.007472260000000097e+04
-3.008154009999999835e+04
-3.007545119999999952e+04
-3.007797239999999874e+04
-3.007934490000000005e+04
-3.007817150000000038e+04
-3.008025270000000091e+04
-3.007872269999999844e+04
-3.007923119999999835e+04
-3.007919090000000142e+04
-3.007697650000000067e+04
-3.007693639999999868e+04
-3.007640669999999955e+04
-3.007855749999999898e+04
-3.007674550000000090e+04
-3.007781729999999880e+04
-3.008100649999999951e+04
-3.007918400000000111e+04
-3.007904249999999956e+04
-3.007993639999999868e+04
-3.007405059999999867e+04
-3.008094979999999850e+04
-3.007303550000000178e+04
-3.007648930000000109e+04
-3.007545739999999932e+04
-3.007207660000000033e+04
-3.007504439999999886e+04
-3.007862559999999939e+04
-3.007654690000000119e+04
-3.008025660000000062e+04
-3.008076060000000143e+04
-3.007679660000000149e+04
-3.007407440000000133e+04
-3.007736820000000080e+04
-3.007655730000000040e+04
-3.007622869999999966e+04
-3.007539919999999984e+04
-3.008189129999999932e+04
-3.007805319999999847e+04
-3.007606260000000111e+04
-3.007680630000000019e+04
-3.007779899999999907e+04
-3.007921099999999933e+04
-3.007786479999999938e+04
-3.007576599999999962e+04
-3.008022720000000118e+04
-3.007583390000000145e+04
-3.007796180000000095e+04
-3.007914289999999892e+04
-3.007618920000000071e+04
-3.007670860000000175e+04
-3.007689830000000075e+04
-3.007742109999999957e+04
-3.007497160000000076e+04
-3.007554709999999977e+04
-3.007719599999999991e+04
-3.007643709999999919e+04
-3.008085670000000027e+04
-3.007837610000000132e+04
-3.008106190000000061e+04
-3.007835169999999925e+04
-3.007981000000000131e+04
-3.008179499999999825e+04
-3.007687549999999828e+04
-3.007569159999999829e+04
-3.007401039999999921e+04
-3.007031639999999970e+04
-3.007711089999999967e+04
-3.007791029999999955e+04
-3.007947279999999955e+04
-3.007588629999999830e+04
-3.007747950000000128e+04
-3.007872260000000097e+04
-3.007602790000000095e+04
-3.007648749999999927e+04
-3.007705819999999949e+04
-3.007526910000000134e+04
-3.007873909999999887e+04
-3.007990539999999964e+04
-3.007708369999999923e+04
-3.007576009999999951e+04
-3.007715799999999945e+04
-3.007513269999999829e+04
-3.007389839999999822e+04
-3.007827579999999944e+04
-3.007805129999999917e+04
-3.007656789999999819e+04
-3.007694670000000042e+04
-3.007799069999999847e+04
-3.007705089999999836e+04
-3.007568029999999999e+04
-3.007729439999999886e+04
-3.007718500000000131e+04
-3.007561869999999908e+04
-3.007411720000000059e+04
-3.007335880000000179e+04
-3.007619910000000164e+04
-3.007854060000000027e+04
-3.007812770000000091e+04
-3.007718980000000010e+04
-3.007601900000000023e+04
-3.007882979999999952e+04
-3.007716730000000098e+04
-3.007764900000000125e+04
-3.007733000000000175e+04
-3.007654929999999877e+04
-3.007843929999999818e+04
-3.007783599999999933e+04
-3.007510029999999824e+04
-3.007623990000000049e+04
-3.007829330000000118e+04
-3.007959660000000076e+04
-3.007872379999999976e+04
-3.007946050000000105e+04
-3.007743340000000171e+04
-3.007327460000000065e+04
-3.007338709999999992e+04
-3.007552419999999984e+04
-3.007847369999999864e+04
-3.007866900000000169e+04
-3.007699460000000181e+04
-3.008167819999999847e+04
-3.007721199999999953e+04
-3.007686799999999857e+04
-3.007784890000000087e+04
-3.008010239999999976e+04
-3.007603059999999823e+04
-3.007752430000000095e+04
-3.007759080000000176e+04
-3.007236370000000170e+04
-3.008051310000000012e+04
-3.008040940000000046e+04
-3.007474429999999847e+04
-3.007679209999999875e+04
-3.007593309999999838e+04
-3.007485610000000088e+04
-3.008388940000000002e+04
-3.007560930000000008e+04
-3.007364619999999923e+04
-3.008073890000000029e+04
-3.007731350000000020e+04
-3.008177960000000166e+04
-3.008045460000000094e+04
-3.007223559999999998e+04
-3.007544190000000162e+04
-3.007570430000000124e+04
-3.007744589999999880e+04
-3.007738829999999871e+04
-3.008146500000000015e+04
-3.006976440000000002e+04
-3.008034549999999945e+04
-3.007805760000000009e+04
-3.007488479999999981e+04
-3.007924880000000121e+04
-3.007897759999999835e+04
-3.007754590000000098e+04
-3.008008139999999912e+04
-3.007694719999999870e+04
-3.007451829999999973e+04
-3.007931759999999849e+04
-3.007511279999999897e+04
-3.007574220000000059e+04
-3.008044320000000153e+04
-3.007526989999999932e+04
-3.007794210000000021e+04
-3.007622079999999914e+04
-3.007589059999999881e+04
-3.008059349999999904e+04
-3.007656109999999899e+04
-3.008027019999999902e+04
-3.007785069999999905e+04
-3.007794180000000051e+04
-3.007778970000000118e+04
-3.007538709999999992e+04
-3.007406509999999980e+04
-3.007678120000000126e+04
-3.007569489999999860e+04
-3.007924009999999907e+04
-3.008005150000000140e+04
-3.007700100000000020e+04
-3.007686200000000099e+04
-3.007724139999999898e+04
-3.007753289999999834e+04
-3.008092640000000029e+04
-3.007837970000000132e+04
-3.007758870000000024e+04
-3.007384100000000035e+04
-3.007739619999999923e+04
-3.007315380000000005e+04
-3.008208429999999862e+04
-3.007512470000000030e+04
-3.007616200000000026e+04
-3.007739010000000053e+04
-3.008114610000000175e+04
-3.007866800000000148e+04
-3.007721050000000105e+04
-3.007959969999999885e+04
-3.007849109999999928e+04
-3.007857330000000002e+04
-3.007555889999999999e+04
-3.008263390000000072e+04
-3.007677460000000065e+04
-3.007568159999999989e+04
-3.007398960000000079e+04
-3.007956799999999930e+04
-3.008079709999999977e+04
-3.007640910000000076e+04
-3.007727769999999873e+04
-3.007782040000000052e+04
-3.007832330000000002e+04
-3.007248589999999967e+04
-3.007848730000000069e+04
-3.007175200000000041e+04
-3.007914400000000023e+04
-3.007698809999999867e+04
-3.007889349999999831e+04
-3.007587129999999888e+04
-3.007498630000000048e+04
-3.007651440000000002e+04
-3.007672019999999975e+04
-3.007780779999999868e+04
-3.007925590000000011e+04
-3.007775660000000062e+04
-3.008103380000000107e+04
-3.007928589999999895e+04
-3.007814860000000044e+04
-3.008103619999999864e+04
-3.008005120000000170e+04
-3.007339089999999851e+04
-3.007335859999999957e+04
-3.007381350000000020e+04
-3.007607210000000123e+04
-3.007530150000000140e+04
-3.007800430000000051e+04
-3.007507010000000082e+04
-3.007964740000000165e+04
-3.007897060000000056e+04
-3.007542180000000008e+04
-3.007685759999999937e+04
-3.007387169999999969e+04
-3.007437549999999828e+04
-3.007822039999999834e+04
-3.007476239999999962e+04
-3.007772759999999835e+04
-3.007715020000000004e+04
-3.007212150000000111e+04
-3.007643140000000130e+04
-3.007895829999999842e+04
-3.007565690000000177e+04
-3.007532070000000022e+04
-3.007555800000000090e+04
-3.007365480000000025e+04
-3.007698519999999917e+04
-3.007849929999999949e+04
-3.007460770000000048e+04
-3.007883329999999842e+04
-3.007781769999999960e+04
-3.007942750000000160e+04
-3.008042090000000098e+04
-3.008195709999999963e+04
-3.007837299999999959e+04
-3.007596050000000105e+04
-3.008009070000000065e+04
-3.007468999999999869e+04
-3.007727569999999832e+04
-3.007957579999999871e+04
-3.007732819999999992e+04
-3.007579379999999946e+04
-3.007639589999999953e+04
-3.007716129999999976e+04
-3.008025600000000122e+04
-3.007940799999999945e+04
-3.007782869999999821e+04
-3.007874559999999838e+04
-3.007896570000000065e+04
-3.007699320000000080e+04
-3.007856260000000111e+04
-3.007433229999999821e+04
-3.007428570000000036e+04
-3.007785859999999957e+04
-3.007758819999999832e+04
-3.007583680000000095e+04
-3.007951420000000144e+04
-3.007696960000000036e+04
-3.007723489999999947e+04
-3.008091389999999956e+04
-3.007548909999999887e+04
-3.007483060000000114e+04
-3.007615680000000066e+04
-3.007872390000000087e+04
-3.007805740000000151e+04
-3.007024069999999847e+04
-3.008247869999999966e+04
-3.007336030000000028e+04
-3.008152660000000105e+04
-3.007561059999999998e+04
-3.007683539999999994e+04
-3.007721429999999964e+04
-3.007835840000000098e+04
-3.008104449999999997e+04
-3.008019050000000061e+04
-3.007623819999999978e+04
-3.007909549999999945e+04
-3.007208799999999974e+04
-3.007825509999999849e+04
-3.007622899999999936e+04
-3.007609779999999955e+04
-3.007375460000000021e+04
-3.007590209999999934e+04
