-7.414312971059207769e+01 1.183268963123201267e+01 7.723275874304007083e+00 1.183268963123201267e+01 -7.174663560806406792e+01 -9.195590070272009697e+00 7.723275874304007083e+00 -9.193996656640008425e+00 -3.876934708019203413e+01
-6.214950530252805549e+01 6.687557013504006775e+00 -8.829104934912008318e+00 6.685963599872006391e+00 -5.121550095974404826e+01 1.637073165516801510e+01 -8.829104934912008318e+00 1.637073165516801510e+01 -7.805017993625607176e+01
-3.545504672563203741e+01 -1.006718732697600949e+01 -9.044215775232007815e+00 -1.006718732697600949e+01 -5.444853721907205113e+01 -2.304076111872002564e+00 -9.044215775232007815e+00 -2.304076111872002564e+00 -7.456060408217607005e+01
-5.379205080268805261e+01 -1.049900242124801153e+01 2.009294589952002053e+00 -1.050059583488001103e+01 -8.652873387212808609e+01 -2.951002046464002770e+00 2.009294589952002053e+00 -2.951002046464002770e+00 -4.647350199091204814e+01
-8.728879217459208917e+01 -8.126409523200008866e-01 1.562979431628801485e+01 -8.126409523200008866e-01 -6.301950914560006822e+01 -2.997211041792003261e+00 1.562979431628801485e+01 -2.997211041792003261e+00 -6.648359038156806378e+01
-4.649580978176005175e+01 1.546567271219201523e+01 -1.780480392396801648e+01 1.546567271219201523e+01 -5.971158244556806238e+01 3.107156582400003031e-01 -1.780480392396801648e+01 3.107156582400003031e-01 -5.448996597350404869e+01
-5.670481092198405548e+01 4.965076877312005088e+00 -6.488380309504006682e+00 4.965076877312005088e+00 -3.838533439488004007e+01 1.191873396736001123e+00 -6.488380309504006682e+00 1.191873396736001123e+00 -3.320674009088003231e+01
-3.069392679321602913e+01 -1.294967258726401305e+01 2.554242052096002524e+00 -1.294967258726401305e+01 -2.026344115814401903e+01 1.363802727628801392e+01 2.554242052096002524e+00 1.363962068992001342e+01 -5.298100326400005855e+01
-5.118203927347204285e+01 -1.905404021145601945e+01 2.864957710336002883e+00 -1.905244679782402173e+01 -3.486070344089603879e+01 -1.420846935654401300e+01 2.864957710336002883e+00 -1.420846935654401300e+01 -3.372937976217603051e+01
-3.927127237427204420e+01 1.443154726502401530e+01 7.699374669824008421e+00 1.443314067865601480e+01 -6.272791445094406271e+01 -1.060098089369601126e+01 7.699374669824008421e+00 -1.060098089369601126e+01 -5.233885757030405728e+01
-4.627273187328004411e+01 -2.311087131852802301e+01 -8.115255627776008396e+00 -2.311087131852802301e+01 -5.492815472230405760e+01 1.751161581568001724e+00 -8.115255627776008396e+00 1.752754995200001886e+00 -6.593704950579207491e+01
-5.114539075993605621e+01 -4.797768445952004690e+00 -9.957241786368010494e+00 -4.797768445952004690e+00 -7.308988329984008203e+01 6.818216931328006325e+00 -9.957241786368010494e+00 6.818216931328006325e+00 -6.570600452915206802e+01
-4.466816434585604156e+01 1.403478727065601461e+01 1.370335723520001325e+00 1.403478727065601461e+01 -5.742184705638405973e+01 2.341521332224002450e+01 1.370335723520001325e+00 2.341521332224002450e+01 -5.840179644006405368e+01
-4.506333092659204453e+01 -4.184304197632004119e+00 5.323594944512005434e+00 -4.184304197632004119e+00 -6.967997812736007290e+01 -1.263417668812801331e+01 5.323594944512005434e+00 -1.263577010176001281e+01 -3.482883516825603465e+01
-4.946911961907205324e+01 -1.356313683558401451e+01 2.058690412544001980e+00 -1.356313683558401451e+01 -6.910794263347206368e+01 1.297357379174401260e+01 2.057096998912002039e+00 1.297357379174401260e+01 -6.976602246348807057e+01
-5.779789267353605453e+01 4.464744996864004278e+00 7.922452578304008064e+00 4.464744996864004278e+00 -3.191766846259203305e+01 8.841852243968009617e+00 7.922452578304008064e+00 8.841852243968009617e+00 -5.939767996006405326e+01
-5.147204055449604709e+01 8.599653371904008026e+00 1.363484044902401493e+01 8.598059958272008529e+00 -5.312919073177604901e+01 -1.251945090662401228e+01 1.363484044902401493e+01 -1.251945090662401228e+01 -3.549328865280003242e+01
-5.301446495027205685e+01 -1.007993463603201079e+01 -3.278767230566403867e+01 -1.007993463603201079e+01 -5.760508962406404976e+01 8.384542531584008529e+00 -3.278767230566403867e+01 8.384542531584008529e+00 -5.123621533696005770e+01
-5.282166190080005208e+01 8.257069441024007972e+00 1.397264413900801472e+01 8.257069441024007972e+00 -4.878235834368005186e+01 1.339582840422401233e+01 1.397423755264001421e+01 1.339582840422401233e+01 -4.094595010150404590e+01
-4.705828479385604624e+01 2.547868397568002319e+00 1.941893193318401956e+01 2.547868397568002319e+00 -4.503783630848004549e+01 -1.046872756224001044e+01 1.941893193318401956e+01 -1.046872756224001044e+01 -6.424962446950405592e+01
-6.610595135078406770e+01 -9.061743325184009379e+00 -9.241799065600009300e+00 -9.061743325184009379e+00 -5.986136332697605411e+01 -1.034603471257601015e+01 -9.241799065600009300e+00 -1.034603471257601015e+01 -6.287132167782406356e+01
-6.876535870259206717e+01 -2.530978213068802418e+01 -1.668941438156801738e+01 -2.530978213068802418e+01 -7.247482563788807397e+01 -1.016757238579201150e+01 -1.668941438156801738e+01 -1.016757238579201150e+01 -5.565156451123205272e+01
-4.438453671936004952e+01 3.415322778828803507e+01 9.738944118784010229e+00 3.415322778828803507e+01 -6.034257424384006185e+01 2.801221165056003048e+00 9.738944118784010229e+00 2.801221165056003048e+00 -5.689283373056005644e+01
-3.922825020620803826e+01 -1.297038696448001405e+00 -2.313317910937602306e+01 -1.297038696448001405e+00 -5.383507297075205145e+01 9.385206292480010148e+00 -2.313317910937602306e+01 9.385206292480010148e+00 -6.534589304832006462e+01
-5.250935282892805134e+01 6.867612753920007140e-01 -1.183587645849601167e+01 6.867612753920007140e-01 -5.078209245184005738e+01 -1.090691631104001225e+01 -1.183587645849601167e+01 -1.090691631104001225e+01 -7.481555026329607472e+01
-3.625494036889603677e+01 8.077013700608008051e+00 1.203823998976001164e+01 8.077013700608008051e+00 -5.779470584627205199e+01 2.106492821504002322e+01 1.203983340339201291e+01 2.106492821504002322e+01 -5.799388255027205474e+01
-2.810781646848002779e+01 -1.397742437990401498e+01 2.248306634752002253e+01 -1.397742437990401498e+01 -4.168051378585604283e+01 -1.778886978764801796e+01 2.248306634752002253e+01 -1.779046320128001568e+01 -3.683972317184004197e+01
-3.282272740556803114e+01 -1.743194513408001578e+00 9.361305088000008823e+00 -1.743194513408001578e+00 -3.016810029465602838e+01 -7.130526003200007068e+00 9.361305088000008823e+00 -7.130526003200007068e+00 -4.723196687974404995e+01
-6.127153439129606483e+01 -7.618110574592007467e+00 -2.576549842944002577e+01 -7.618110574592007467e+00 -4.891779850240005345e+01 -7.804539969536007149e+00 -2.576549842944002577e+01 -7.804539969536007149e+00 -5.962075786854406090e+01
-6.874305091174406357e+01 -5.817553170432006482e+00 1.863337901260801743e+01 -5.817553170432006482e+00 -3.722851609804803985e+01 -3.202761400320003116e+00 1.863337901260801743e+01 -3.202761400320003116e+00 -6.794315726848006420e+01
-5.749355066982406015e+01 -1.966272421888002109e+00 -8.851412725760008371e+00 -1.966272421888002109e+00 -7.471516520448007270e+01 7.675473465344007984e+00 -8.851412725760008371e+00 7.675473465344007984e+00 -5.241056118374405060e+01
-2.716451559833602758e+01 -1.142955598233601044e+01 -3.652104044544004058e+00 -1.142955598233601044e+01 -5.211577966182404964e+01 -1.705589951692801876e+01 -3.652104044544004058e+00 -1.705589951692801876e+01 -3.395245767065603815e+01
-4.419970073804804400e+01 6.192005373952006231e+00 -2.283361734656002451e+00 6.192005373952006231e+00 -5.572964177920005113e+01 -2.579736670208002458e+00 -2.283361734656002451e+00 -2.579736670208002458e+00 -2.777160619212802928e+01
-4.720487884800004252e+01 -2.726330724352002743e+00 -1.918629354291201849e+01 -2.726330724352002743e+00 -6.588606026956806261e+01 2.963749355520003181e+00 -1.918629354291201849e+01 2.963749355520003181e+00 -6.360747877580806886e+01
-2.325746537267202285e+01 8.115255627776008396e+00 -3.319080595456003646e+00 8.115255627776008396e+00 -4.637471034572804740e+01 2.017102316748801982e+01 -3.317487181824003262e+00 2.017102316748801982e+01 -4.336315858124804379e+01
-1.311857443225601472e+01 3.000397869056002698e+00 -8.290531127296008052e+00 2.998804455424003201e+00 -5.883520494796805878e+01 -5.060681695232005062e+00 -8.290531127296008052e+00 -5.060681695232005062e+00 -3.766192460595203784e+01
-4.034682657587204346e+01 1.473588926873601324e+01 -9.133446938624009803e+00 1.473588926873601324e+01 -6.920673427865607152e+01 1.077466297958400965e+01 -9.133446938624009803e+00 1.077466297958400965e+01 -5.260177081958405410e+01
-6.464160422297607056e+01 -1.305802471424001254e+01 2.944628391936003009e+00 -1.305802471424001254e+01 -5.538865126195205590e+01 -3.943698739200004244e+00 2.944628391936003009e+00 -3.943698739200004244e+00 -5.716690087526405506e+01
-4.939422917836805027e+01 7.919265751040008849e-01 3.341388386304003255e+00 7.919265751040008849e-01 -3.367201687142403443e+01 7.774265110528006950e+00 3.341388386304003255e+00 7.775858524160007335e+00 -2.304235453235202158e+01
-3.333102635417603210e+01 3.368476418048003573e+00 6.201565855744006761e+00 3.368476418048003573e+00 -1.136581943705601105e+01 2.461824061440002431e+00 6.201565855744006761e+00 2.461824061440002431e+00 -4.118018190540804113e+01
-4.220634028441604357e+01 -1.412561184768001432e+01 -4.638427082752004438e+00 -1.412561184768001432e+01 -4.564333348864004591e+01 -1.094197141094401005e+01 -4.638427082752004438e+00 -1.094197141094401005e+01 -5.135094111846404985e+01
-3.904022739763203731e+01 -6.757667213312006815e+00 1.169565605888001070e+00 -6.756073799680006431e+00 -3.585499354726403709e+01 2.119240130560002378e+00 1.169565605888001070e+00 2.119240130560002378e+00 -8.707846157516809171e+01
-5.121072071884805155e+01 6.166510755840005631e-01 4.134908375040004636e+00 6.166510755840005631e-01 -5.630645751398405707e+01 -1.798963990528001844e+01 4.134908375040004636e+00 -1.798963990528001844e+01 -4.740246213836805111e+01
-5.458397737779205983e+01 9.045809188864009087e+00 1.044482635776001089e+01 9.045809188864009087e+00 -5.400556822937605261e+01 1.137378650521601209e+01 1.044323294412800962e+01 1.137378650521601209e+01 -4.831070790860804465e+01
-2.465329571430402567e+01 2.881369870745602668e+01 -6.050191560704005767e+00 2.881369870745602668e+01 -5.599733526937605887e+01 -2.429955788800002736e+00 -6.050191560704005767e+00 -2.429955788800002736e+00 -5.616305028710405622e+01
-4.497728659046403976e+01 -8.875313930240008586e-01 -6.695524081664006921e+00 -8.875313930240008586e-01 -4.982445085900804571e+01 1.219120769843201124e+01 -6.695524081664006921e+00 1.219120769843201124e+01 -5.880014984806405209e+01
-6.616968789606406176e+01 -1.612375254220801679e+01 9.418667978752008452e+00 -1.612215912857601552e+01 -5.551612435251205113e+01 -9.098391838720008451e+00 9.418667978752008452e+00 -9.098391838720008451e+00 -5.598140113305605325e+01
-4.725108784332804390e+01 -4.732438487040004915e+00 1.563616797081601639e+01 -4.732438487040004915e+00 -5.381276517990406205e+01 -1.379418181222401429e+01 1.563616797081601639e+01 -1.379418181222401429e+01 -5.268940856934405303e+01
-2.638214950502402445e+01 -2.253086875648002252e+00 1.478687850496001488e+00 -2.253086875648002252e+00 -3.848890628096003752e+01 9.248172720128009061e+00 1.478687850496001488e+00 9.248172720128009061e+00 -2.955622945996802997e+01
-3.082299329740803273e+01 2.343911452672002405e+00 1.073004739788801132e+01 2.343911452672002405e+00 -4.190359169433603626e+01 4.541228851200004302e-01 1.073004739788801132e+01 4.541228851200004302e-01 -4.274969433292804410e+01
-3.974770305024003392e+01 -7.613330333696008090e+00 -4.522107887616003907e+00 -7.613330333696008090e+00 -4.875367689830405027e+01 -5.916344815616006336e+00 -4.522107887616003907e+00 -5.916344815616006336e+00 -4.724630760243204719e+01
-4.234656068403204188e+01 -1.266763837440001206e+00 -3.736554967040003561e+00 -1.266763837440001206e+00 -5.314990510899205134e+01 1.115389542400001092e-02 -3.736554967040003561e+00 1.115389542400001092e-02 -7.234257230643206071e+01
-5.468436243660806184e+01 -1.322851997286401371e+01 1.927711811993601998e+01 -1.322851997286401371e+01 -9.686839493017609470e+01 7.377505116160006926e-01 1.927711811993601998e+01 7.361570979840007523e-01 -6.167785486745606249e+01
-4.248837449728004145e+01 6.663655809024006338e+00 -2.237152739328002404e+00 6.663655809024006338e+00 -4.903889793843205069e+01 2.409241411584002623e+00 -2.237152739328002404e+00 2.409241411584002623e+00 -2.832930096332802705e+01
-4.864851159859204444e+01 2.501659402240002383e-01 3.436993204224003673e+00 2.485725265920002425e-01 -3.920275558809603922e+01 -6.963217571840006892e-01 3.436993204224003673e+00 -6.963217571840006892e-01 -6.032185986662406663e+01
-6.337006014464006398e+01 6.112334692352006549e+00 -1.779046320128001568e+01 6.112334692352006549e+00 -8.409718466969607675e+01 2.833089437696002744e+00 -1.779046320128001568e+01 2.833089437696002744e+00 -9.343936879411209873e+01
-5.339210398105606004e+01 -6.982338535424005954e+00 -3.382817140736003036e+00 -6.980745121792007346e+00 -3.368795100774403295e+01 -1.065993719808001039e+01 -3.382817140736003036e+00 -1.065993719808001039e+01 -4.400689768857604633e+01
-2.461027354624002683e+01 -5.121231413248004571e+00 -2.061717898444802088e+01 -5.121231413248004571e+00 -3.343459824025603666e+01 9.412294324224008690e+00 -2.061717898444802088e+01 9.412294324224008690e+00 -4.419492049715204729e+01
-7.341334626713607747e+01 -4.909307400192004955e+00 5.446287794176005725e+00 -4.909307400192004955e+00 -5.420474493337605537e+01 1.888195153920001923e+00 5.444694380544005341e+00 1.888195153920001923e+00 -7.114910549606406676e+01
-2.860974176256002721e+01 -3.150178750464003308e+00 -1.477094436864001636e+01 -3.150178750464003308e+00 -5.804965202739205665e+01 -3.985127493632004470e+00 -1.477094436864001636e+01 -3.985127493632004470e+00 -6.450457065062406059e+01
-3.405443614310403433e+01 2.367812657152002398e+00 2.307262939136002444e+00 2.367812657152002398e+00 -4.695471290777604878e+01 1.348665298124801204e+01 2.307262939136002444e+00 1.348665298124801204e+01 -4.037072778035204124e+01
-5.980559384985605220e+01 -1.081927856128001020e+00 -1.040658443059201055e+01 -1.081927856128001020e+00 -4.499322072678404538e+01 1.158730393190401209e+01 -1.040817784422401004e+01 1.158730393190401209e+01 -4.378700660736004835e+01
-1.066153061171200989e+01 -1.663205149081601419e+01 -1.349780687667201207e+01 -1.663205149081601419e+01 -1.854255443558401950e+01 -7.678660292608007865e+00 -1.349780687667201207e+01 -7.678660292608007865e+00 -3.153046895001603289e+01
-3.839011463577603678e+01 1.162235903180801166e+01 9.963615440896010256e+00 1.162235903180801166e+01 -3.770494677401603667e+01 7.011019980800007545e+00 9.963615440896010256e+00 7.011019980800007545e+00 -6.529968405299206324e+01
-2.001008839065601919e+01 7.632451297280007374e-01 5.149912858624005274e+00 7.632451297280007374e-01 -5.800822327296005909e+01 -2.484131852288002484e+00 5.148319444992004890e+00 -2.484131852288002484e+00 -4.916159078809604921e+01
-3.571955338854403550e+01 -1.445226164224001408e+00 -5.401672212480004731e+00 -1.445226164224001408e+00 -4.888274340249604677e+01 -9.332623642624009008e+00 -5.401672212480004731e+00 -9.332623642624009008e+00 -3.725401071616003890e+01
-6.931349299200006442e+01 1.490001087283201464e+01 -1.805178303692801833e+01 1.490001087283201464e+01 -7.207487881625607429e+01 6.829370826752006352e+00 -1.805178303692801833e+01 6.829370826752006352e+00 -6.226263767040006059e+01
-3.301234362777603337e+01 7.387065597952007678e+00 -3.400344690688003269e+00 7.387065597952007678e+00 -3.167068934963203475e+01 1.281423242854401323e+01 -3.400344690688003269e+00 1.281423242854401323e+01 -5.059884988416004603e+01
-7.585445595136008023e+01 -1.090213607014401020e+01 -1.768689131520001789e-01 -1.090213607014401020e+01 -5.455688934604805240e+01 -9.597130305536008876e+00 -1.784623267840001748e-01 -9.597130305536008876e+00 -5.967493393203205443e+01
-6.259088087859206695e+01 -4.894966677504005048e+00 -1.512468219494401644e+01 -4.896560091136005433e+00 -6.758463920128006919e+01 -1.196972320358401198e+01 -1.512468219494401644e+01 -1.196972320358401198e+01 -3.553790423449603253e+01
-5.911723916083206376e+01 -3.393971036160003396e-01 -2.393785299353602269e+01 -3.393971036160003396e-01 -1.929464566988801977e+01 -1.704952586240001677e-01 -2.393785299353602269e+01 -1.704952586240001677e-01 -2.582126790656002768e+01
-4.905323866112004794e+01 2.716770242560002657e+00 1.413517232947201485e+01 2.716770242560002657e+00 -6.566776260198406590e+01 2.766166065152002584e+00 1.413676574310401435e+01 2.766166065152002584e+00 -3.910555735654403975e+01
-5.472419777740805102e+01 -4.413755760640004633e-01 1.449209698304001570e+01 -4.413755760640004633e-01 -4.059061886156803922e+01 -5.433540485120005314e-01 1.449209698304001570e+01 -5.433540485120005314e-01 -6.096878580121605751e+01
-4.132358913228804198e+01 -1.324923435008001249e+01 2.874518192128002969e+00 -1.324923435008001249e+01 -6.280917854617606366e+01 -6.741733076992007412e+00 2.874518192128002969e+00 -6.743326490624006020e+00 -3.769060605132803943e+01
-5.733102247936005114e+01 5.788871725056005779e+00 2.992430800896002996e+00 5.788871725056005779e+00 -7.217207704780807376e+01 1.005444001792000996e+00 2.992430800896002996e+00 1.005444001792000996e+00 -5.529623327129605315e+01
-5.140511718195205049e+01 7.348823670784007334e+00 2.057096998912002039e+00 7.348823670784007334e+00 -3.062859683430403024e+01 -1.037471615795201174e+01 2.057096998912002039e+00 -1.037471615795201174e+01 -5.730234103398405665e+01
-3.223635118899203178e+01 -1.289071628288001259e+00 5.017659527168004452e+00 -1.289071628288001259e+00 -4.270667216486404527e+01 -4.863098404864005353e+00 5.017659527168004452e+00 -4.863098404864005353e+00 -9.361942453452809332e+01
-4.479882426368004644e+01 1.755463798374401918e+01 -3.331827904512003169e+00 1.755463798374401918e+01 -5.035505759846405027e+01 -1.413676574310401435e+01 -3.333421318144003553e+00 -1.413835915673601562e+01 -6.171450338099206334e+01
-6.208258192998405889e+01 4.942769086464005035e+00 -2.041162862592002192e+00 4.941175672832004651e+00 -6.488380309504006505e+01 4.287876083712004238e+00 -2.041162862592002192e+00 4.286282670080004742e+00 -7.057866341580806591e+01
-5.228308809318405537e+01 1.260390182912001400e+01 1.194900882636801143e+01 1.260390182912001400e+01 -4.896400749772804772e+01 -1.747337388851201823e+01 1.194900882636801143e+01 -1.747337388851201823e+01 -6.268648569651206515e+01
-4.052369548902404262e+01 -8.725533048832009086e+00 -1.767573741977601998e+01 -8.727126462464008583e+00 -6.671941559910406738e+01 -1.394714952089601390e+01 -1.767573741977601998e+01 -1.394714952089601390e+01 -6.946327387340807036e+01
-5.671755823104005856e+01 7.718495633408007706e+00 -5.051121213440005198e-01 7.718495633408007706e+00 -4.334563103129604400e+01 -8.618774335488009086e+00 -5.051121213440005198e-01 -8.618774335488009086e+00 -6.804991598182407131e+01
-5.159473340416005271e+01 3.508696817664003653e+00 6.633380950016007027e+00 3.507103404032003269e+00 -4.068622367948804452e+01 7.093877489664007108e+00 6.633380950016007027e+00 7.093877489664007108e+00 -4.946274596454404815e+01
-7.176734998528006315e+01 -4.675075596288004398e+00 -2.477758197760002279e+00 -4.673482182656004014e+00 -4.251227570176003923e+01 7.310581743616007877e+00 -2.477758197760002279e+00 7.310581743616007877e+00 -4.954879030067204582e+01
-5.670162409472005294e+01 -1.109015887872001116e+00 6.129862242304006337e+00 -1.109015887872001116e+00 -6.277253003264006281e+01 2.082750958387201834e+01 6.129862242304006337e+00 2.082750958387201834e+01 -7.424351476940806549e+01
-3.863072009420804420e+01 -5.495683616768005209e+00 6.655688740864007080e+00 -5.495683616768005209e+00 -5.141149083648005558e+01 3.935731671040003654e-01 6.655688740864007080e+00 3.935731671040003654e-01 -5.264001274675205622e+01
-3.618164334182404218e+01 -3.495949508608003686e+00 -7.758330974208007547e+00 -3.495949508608003686e+00 -6.425759153766406939e+01 -1.483468091392001531e+00 -7.758330974208007547e+00 -1.483468091392001531e+00 -5.790624480051205580e+01
-2.407169973862402657e+01 8.830698348544009590e+00 -9.139820593152009565e+00 8.830698348544009590e+00 -4.248837449728004145e+01 -1.079537735680001020e+01 -9.139820593152009565e+00 -1.079537735680001020e+01 -4.312573995008003891e+01
-3.919797534720004251e+01 4.334085079040004285e-01 -1.391050100736001438e+00 4.334085079040004285e-01 -6.376522672537605985e+01 1.159845782732801212e+01 -1.391050100736001438e+00 1.159845782732801212e+01 -5.969405489561606259e+01
-4.719213153894404655e+01 3.934138257408003714e+00 -1.719771333017601833e+01 3.934138257408003714e+00 -7.132278758195207047e+01 -5.629530361856005527e+00 -1.719771333017601833e+01 -5.629530361856005527e+00 -8.792775104102409500e+01
-4.437497623756804188e+01 8.625147990016008848e+00 -1.322851997286401371e+01 8.625147990016008848e+00 -5.126489678233605218e+01 1.040339760332800978e+01 -1.323011338649601321e+01 1.040339760332800978e+01 -5.229902222950404678e+01
-4.774504606924804762e+01 -1.658743590912001764e+01 -3.491169267712002977e+00 -1.658743590912001764e+01 -4.770202390118404168e+01 -2.772539719680002790e+00 -3.491169267712002977e+00 -2.772539719680002790e+00 -7.572698286080007790e+01
-3.017128712192003093e+01 -2.130394025984002404e+00 1.602974113792001631e+01 -2.130394025984002404e+00 -4.394634797056004771e+01 1.040658443059201055e+01 1.602974113792001631e+01 1.040658443059201055e+01 -5.345424711270405282e+01
-3.643021586841604176e+01 3.080068550656003268e+00 2.136767680512002165e+00 3.080068550656003268e+00 -5.156923878604804656e+01 -8.677730639872009988e+00 2.136767680512002165e+00 -8.677730639872009988e+00 -4.764466101043204560e+01
-6.348000568524805942e+01 1.008790170419201004e+01 -1.355038952652801321e+01 1.008790170419201004e+01 -2.167042539520002009e+01 1.128933558272001214e+01 -1.355038952652801321e+01 1.128933558272001214e+01 -1.151416624619521230e+02
-4.678421764915204761e+01 -1.278395756953601392e+01 2.034789208064001986e+00 -1.278395756953601392e+01 -3.889841358438403773e+01 6.529809063936006908e+00 2.034789208064001986e+00 6.529809063936006908e+00 -5.646261204992006100e+01
-3.970946112307203890e+01 -1.522825408102401390e+01 2.310449766400002325e-01 -1.522825408102401390e+01 -4.669179965849604486e+01 -1.089576241561601222e+01 2.310449766400002325e-01 -1.089576241561601222e+01 -4.843180734464004900e+01
-3.734483529318403328e+01 -4.949142740992004796e+00 -2.581808107929602514e+01 -4.949142740992004796e+00 -2.501978084966402704e+01 1.425467835187201615e+01 -2.581808107929602514e+01 1.425467835187201615e+01 -4.836169714483204984e+01
-6.257972698316806515e+01 -1.270588030156801373e+01 -5.478156066816005421e+00 -1.270428688793601069e+01 -1.406984237056001241e+01 1.469127368704001402e+00 -5.478156066816005421e+00 1.469127368704001402e+00 -4.474942844108804962e+01
-7.829397222195207462e+01 2.302323356876802407e+01 2.090558685184002119e+00 2.302323356876802407e+01 -5.961438421401606291e+01 3.671225008128003786e+00 2.092152098816002059e+00 3.671225008128003786e+00 -5.511299070361605601e+01
-7.076349939712007142e+01 -6.810249863168007067e+00 -7.903331614720008336e-01 -6.810249863168007067e+00 -7.761995825561608342e+01 -1.477891143680001562e+01 -7.903331614720008336e-01 -1.478050485043201334e+01 -5.909493136998406015e+01
-3.257256146534403030e+01 7.908111855616008157e+00 1.735227445248001654e+00 7.908111855616008157e+00 -6.087318098329605931e+01 3.192722894438403003e+01 1.735227445248001654e+00 3.192722894438403003e+01 -5.923833859686406100e+01
-7.853298426675208077e+01 1.615243398758401483e+01 -1.604089503334401456e+01 1.615243398758401483e+01 -6.281395878707206037e+01 -6.945690021888006882e+00 -1.604089503334401456e+01 -6.945690021888006882e+00 -7.146938163609607386e+01
-5.766882616934405803e+01 -1.396467707084801191e+01 -9.418667978752008452e+00 -1.396627048448001496e+01 -8.532570657996808450e+01 -2.294515630080002477e+00 -9.420261392384009724e+00 -2.294515630080002477e+00 -5.017659527168004274e+01
-4.577877364736004040e+01 3.570839949312003547e+00 -1.160005124096001206e+00 3.570839949312003547e+00 -7.258317776486407524e+01 -1.341654278144001289e+00 -1.160005124096001206e+00 -1.341654278144001289e+00 -5.036939832115204752e+01
-3.098074124697602727e+01 -5.255078158336005778e+00 1.030779278540800981e+01 -5.255078158336005778e+00 -6.311830079078406897e+01 -1.077306956595201015e+01 1.030779278540800981e+01 -1.077306956595201015e+01 -4.480360450457604315e+01
-4.471596675481604422e+01 3.558092640256004024e+00 5.874916061184006111e+00 3.558092640256004024e+00 -5.276270559641604763e+01 -3.139024855040003281e+00 5.874916061184006111e+00 -3.139024855040003281e+00 -3.808258580480003985e+01
-3.470932914585603868e+01 -2.222812016640002053e+00 -1.194422858547201294e+01 -2.222812016640002053e+00 -3.910715077017603392e+01 -2.175009607680002066e+00 -1.194422858547201294e+01 -2.176603021312002006e+00 -3.417553557913603157e+01
-5.155011782246405261e+01 -1.201752561254401286e+01 -3.821005889536003952e+00 -1.201752561254401286e+01 -7.880864482508808067e+01 8.795643248640008238e-01 -3.819412475904003568e+00 8.795643248640008238e-01 -6.446632872345607268e+01
-4.363244548505604570e+01 -6.975964880896007081e+00 4.479085719552005074e+00 -6.975964880896007081e+00 -1.031671590174721018e+02 -1.249395628851201323e+01 4.479085719552005074e+00 -1.249395628851201323e+01 -8.637576616345609182e+01
-2.927738207436803108e+01 -5.271012294656005182e+00 -3.881555607552003462e+00 -5.271012294656005182e+00 -1.997343987712001834e+01 1.867480776704001855e+01 -3.881555607552003462e+00 1.867640118067201982e+01 -4.897516139315204953e+01
-5.567865254297606015e+01 1.449847063756801369e+01 -3.393971036160003507e+00 1.449847063756801369e+01 -6.176389920358406016e+01 1.012136339046401012e+01 -3.393971036160003507e+00 1.012136339046401012e+01 -4.550311308902404761e+01
-5.591129093324806121e+01 -3.174079954944002857e+00 5.882883129344006257e+00 -3.174079954944002857e+00 -4.804779465932804783e+01 2.554242052096002524e+00 5.882883129344006257e+00 2.554242052096002524e+00 -5.430034975129604646e+01
-4.142238077747203562e+01 -6.883546890240006544e-01 -2.127207198720002079e+00 -6.883546890240006544e-01 -5.583002683801605315e+01 5.645464498176005819e+00 -2.127207198720002079e+00 5.645464498176005819e+00 -5.572167471104005898e+01
-5.694063613952005909e+01 1.171159019520001232e+00 5.911564574720006293e-01 1.171159019520001232e+00 -6.834629091737606643e+01 -8.339926949888008423e+00 5.911564574720006293e-01 -8.339926949888008423e+00 -4.697861411225604655e+01
-2.396175419801602402e+01 4.224139538432004848e+00 -3.129464373248003195e+00 4.224139538432004848e+00 -2.963749355520002737e+01 3.489575854080003703e-01 -3.129464373248003195e+00 3.505509990400003661e-01 -4.857840139878405239e+01
-4.263656196505604612e+01 -9.042622361600010095e+00 2.420395307008002206e+00 -9.042622361600010095e+00 -4.552223405260804867e+01 2.605709312409602418e+01 2.420395307008002206e+00 2.605709312409602418e+01 -5.413144790630406078e+01
-4.971131849113604773e+01 1.716106481664001704e+00 6.432610832384006549e+00 1.716106481664001704e+00 -2.366537926246402535e+01 -9.670427332608008797e+00 6.432610832384006549e+00 -9.670427332608008797e+00 -4.080572970188804049e+01
-5.318017996800005420e+01 -1.821271781376001764e+00 -3.835346612224003415e+00 -1.821271781376001764e+00 -7.489044070400007058e+01 1.785101291929601786e+01 -3.836940025856003800e+00 1.785260633292801913e+01 -5.937537216921605676e+01
-5.405655746560005070e+01 1.207329508966401299e+01 8.709598912512008795e+00 1.207329508966401299e+01 -5.926383321497605294e+01 2.084185030656001913e+00 8.709598912512008795e+00 2.084185030656001913e+00 -5.013357310361604391e+01
-2.464532864614402285e+01 6.520248582144006377e+00 1.103120257433601203e+01 6.520248582144006377e+00 -5.087291702886404465e+01 -3.887929262080003778e-01 1.103120257433601203e+01 -3.887929262080003778e-01 -3.746115448832003381e+01
-5.247111090176005632e+01 1.132439068262400994e+01 -1.426583224729601262e+01 1.132439068262400994e+01 -6.722771454771206834e+01 -3.696719626240003720e-01 -1.426583224729601262e+01 -3.696719626240003720e-01 -4.882538051174405069e+01
-6.046526709350406037e+01 -1.486495577292801507e+01 -9.042622361600010095e+00 -1.486495577292801507e+01 -3.055689322086402981e+01 -9.315096092672009220e+00 -9.041028947968008822e+00 -9.315096092672009220e+00 -6.255423236505606610e+01
-4.620899532800005005e+01 1.126543437824001126e+00 6.878766649344006723e+00 1.126543437824001126e+00 -7.162394275840006230e+01 1.000185736806400882e+01 6.880360062976006219e+00 1.000026395443201110e+01 -3.220448291635203475e+01
-4.086787283353604039e+01 -3.918204121088003422e+00 2.713264732569603055e+01 -3.918204121088003422e+00 -6.352462126694406663e+01 1.518204508569601607e+01 2.713264732569603055e+01 1.518045167206401658e+01 -6.524391457587206844e+01
-3.256778122444803358e+01 -7.745583665152007136e+00 -5.937059192832006005e+00 -7.745583665152007136e+00 -6.958277989580807343e+01 -1.677386530406401732e+01 -5.937059192832006005e+00 -1.677386530406401732e+01 -5.498073737216005696e+01
-5.218588986163205590e+01 -1.130686313267201193e+01 3.709466935296004131e+00 -1.130686313267201193e+01 -6.727711037030407226e+01 -3.836940025856003800e+00 3.709466935296004131e+00 -3.836940025856003800e+00 -8.183772413952009117e+01
-3.636169908224003677e+01 -5.784091484160005514e+00 1.554215656652801592e+01 -5.784091484160005514e+00 -5.239144022016004953e+01 -1.200318488985601206e+01 1.554215656652801592e+01 -1.200318488985601206e+01 -4.227167024332804601e+01
-3.796467319603203805e+01 -9.608284200960008903e+00 -6.803876208640007306e+00 -9.608284200960008903e+00 -4.058902544793603795e+01 2.154295230464002131e+01 -6.805469622272005914e+00 2.154295230464002131e+01 -4.977186820915204635e+01