1.321932200000000002e+01 0.000000000000000000e+00 0.000000000000000000e+00 0.000000000000000000e+00 1.488322699999999976e+01 0.000000000000000000e+00 0.000000000000000000e+00 0.000000000000000000e+00 1.450665799999999983e+01
1.311625500000000066e+01 0.000000000000000000e+00 0.000000000000000000e+00 0.000000000000000000e+00 1.520413699999999935e+01 0.000000000000000000e+00 0.000000000000000000e+00 0.000000000000000000e+00 1.417400499999999930e+01
1.335679299999999969e+01 0.000000000000000000e+00 0.000000000000000000e+00 0.000000000000000000e+00 1.516534399999999927e+01 0.000000000000000000e+00 0.000000000000000000e+00 0.000000000000000000e+00 1.432435599999999987e+01
1.348679300000000048e+01 0.000000000000000000e+00 0.000000000000000000e+00 0.000000000000000000e+00 1.500446400000000047e+01 0.000000000000000000e+00 0.000000000000000000e+00 0.000000000000000000e+00 1.455622100000000074e+01
1.306816599999999973e+01 0.000000000000000000e+00 0.000000000000000000e+00 0.000000000000000000e+00 1.522706200000000010e+01 0.000000000000000000e+00 0.000000000000000000e+00 0.000000000000000000e+00 1.460628200000000021e+01
1.318567799999999934e+01 0.000000000000000000e+00 0.000000000000000000e+00 0.000000000000000000e+00 1.528425299999999964e+01 0.000000000000000000e+00 0.000000000000000000e+00 0.000000000000000000e+00 1.407528899999999972e+01
1.320053399999999932e+01 0.000000000000000000e+00 0.000000000000000000e+00 0.000000000000000000e+00 1.492434500000000064e+01 0.000000000000000000e+00 0.000000000000000000e+00 0.000000000000000000e+00 1.418431999999999960e+01
1.324152100000000054e+01 0.000000000000000000e+00 0.000000000000000000e+00 0.000000000000000000e+00 1.532667499999999983e+01 0.000000000000000000e+00 0.000000000000000000e+00 0.000000000000000000e+00 1.404926700000000039e+01
1.327287500000000087e+01 0.000000000000000000e+00 0.000000000000000000e+00 0.000000000000000000e+00 1.505195800000000084e+01 0.000000000000000000e+00 0.000000000000000000e+00 0.000000000000000000e+00 1.425901799999999930e+01
1.334560800000000036e+01 0.000000000000000000e+00 0.000000000000000000e+00 0.000000000000000000e+00 1.519545899999999961e+01 0.000000000000000000e+00 0.000000000000000000e+00 0.000000000000000000e+00 1.410735799999999962e+01
1.342936699999999917e+01 0.000000000000000000e+00 0.000000000000000000e+00 0.000000000000000000e+00 1.505289699999999975e+01 0.000000000000000000e+00 0.000000000000000000e+00 0.000000000000000000e+00 1.410520600000000080e+01
1.328396900000000080e+01 0.000000000000000000e+00 0.000000000000000000e+00 0.000000000000000000e+00 1.499033099999999941e+01 0.000000000000000000e+00 0.000000000000000000e+00 0.000000000000000000e+00 1.460017900000000068e+01
1.300315800000000088e+01 0.000000000000000000e+00 0.000000000000000000e+00 0.000000000000000000e+00 1.500874800000000064e+01 0.000000000000000000e+00 0.000000000000000000e+00 0.000000000000000000e+00 1.416989700000000063e+01
1.339878200000000064e+01 0.000000000000000000e+00 0.000000000000000000e+00 0.000000000000000000e+00 1.510180399999999956e+01 0.000000000000000000e+00 0.000000000000000000e+00 0.000000000000000000e+00 1.441182700000000061e+01
1.298889800000000072e+01 0.000000000000000000e+00 0.000000000000000000e+00 0.000000000000000000e+00 1.539197399999999938e+01 0.000000000000000000e+00 0.000000000000000000e+00 0.000000000000000000e+00 1.429898400000000080e+01
1.343338999999999928e+01 0.000000000000000000e+00 0.000000000000000000e+00 0.000000000000000000e+00 1.502667899999999968e+01 0.000000000000000000e+00 0.000000000000000000e+00 0.000000000000000000e+00 1.450959800000000044e+01
1.324309700000000056e+01 0.000000000000000000e+00 0.000000000000000000e+00 0.000000000000000000e+00 1.494036299999999962e+01 0.000000000000000000e+00 0.000000000000000000e+00 0.000000000000000000e+00 1.456176400000000015e+01
1.332191599999999987e+01 0.000000000000000000e+00 0.000000000000000000e+00 0.000000000000000000e+00 1.505880900000000011e+01 0.000000000000000000e+00 0.000000000000000000e+00 0.000000000000000000e+00 1.419098800000000082e+01
1.322163199999999961e+01 0.000000000000000000e+00 0.000000000000000000e+00 0.000000000000000000e+00 1.489763699999999957e+01 0.000000000000000000e+00 0.000000000000000000e+00 0.000000000000000000e+00 1.425429899999999961e+01
1.307623899999999928e+01 0.000000000000000000e+00 0.000000000000000000e+00 0.000000000000000000e+00 1.499600200000000072e+01 0.000000000000000000e+00 0.000000000000000000e+00 0.000000000000000000e+00 1.441666400000000081e+01
1.332394900000000071e+01 0.000000000000000000e+00 0.000000000000000000e+00 0.000000000000000000e+00 1.499358999999999931e+01 0.000000000000000000e+00 0.000000000000000000e+00 0.000000000000000000e+00 1.452449000000000012e+01
1.349447800000000086e+01 0.000000000000000000e+00 0.000000000000000000e+00 0.000000000000000000e+00 1.514704900000000087e+01 0.000000000000000000e+00 0.000000000000000000e+00 0.000000000000000000e+00 1.439323599999999992e+01
1.334232699999999916e+01 0.000000000000000000e+00 0.000000000000000000e+00 0.000000000000000000e+00 1.523249099999999956e+01 0.000000000000000000e+00 0.000000000000000000e+00 0.000000000000000000e+00 1.410627099999999956e+01
1.354911899999999925e+01 0.000000000000000000e+00 0.000000000000000000e+00 0.000000000000000000e+00 1.527007099999999973e+01 0.000000000000000000e+00 0.000000000000000000e+00 0.000000000000000000e+00 1.426150699999999993e+01
1.321051300000000062e+01 0.000000000000000000e+00 0.000000000000000000e+00 0.000000000000000000e+00 1.512507399999999969e+01 0.000000000000000000e+00 0.000000000000000000e+00 0.000000000000000000e+00 1.454673499999999997e+01
1.340570800000000062e+01 0.000000000000000000e+00 0.000000000000000000e+00 0.000000000000000000e+00 1.510919699999999999e+01 0.000000000000000000e+00 0.000000000000000000e+00 0.000000000000000000e+00 1.409645699999999913e+01
1.318833200000000083e+01 0.000000000000000000e+00 0.000000000000000000e+00 0.000000000000000000e+00 1.526536800000000049e+01 0.000000000000000000e+00 0.000000000000000000e+00 0.000000000000000000e+00 1.431431800000000010e+01
1.343153900000000078e+01 0.000000000000000000e+00 0.000000000000000000e+00 0.000000000000000000e+00 1.507173099999999977e+01 0.000000000000000000e+00 0.000000000000000000e+00 0.000000000000000000e+00 1.454137700000000066e+01
1.371485999999999983e+01 0.000000000000000000e+00 0.000000000000000000e+00 0.000000000000000000e+00 1.500630899999999990e+01 0.000000000000000000e+00 0.000000000000000000e+00 0.000000000000000000e+00 1.440896399999999922e+01
1.338461999999999996e+01 0.000000000000000000e+00 0.000000000000000000e+00 0.000000000000000000e+00 1.514722500000000061e+01 0.000000000000000000e+00 0.000000000000000000e+00 0.000000000000000000e+00 1.440646699999999925e+01
1.337477799999999917e+01 0.000000000000000000e+00 0.000000000000000000e+00 0.000000000000000000e+00 1.494153000000000020e+01 0.000000000000000000e+00 0.000000000000000000e+00 0.000000000000000000e+00 1.422399899999999917e+01
1.329674100000000081e+01 0.000000000000000000e+00 0.000000000000000000e+00 0.000000000000000000e+00 1.545988200000000035e+01 0.000000000000000000e+00 0.000000000000000000e+00 0.000000000000000000e+00 1.457029999999999959e+01
1.317516799999999932e+01 0.000000000000000000e+00 0.000000000000000000e+00 0.000000000000000000e+00 1.529242299999999943e+01 0.000000000000000000e+00 0.000000000000000000e+00 0.000000000000000000e+00 1.444644699999999915e+01
1.317887200000000014e+01 0.000000000000000000e+00 0.000000000000000000e+00 0.000000000000000000e+00 1.569512100000000032e+01 0.000000000000000000e+00 0.000000000000000000e+00 0.000000000000000000e+00 1.439727099999999993e+01
1.327424800000000005e+01 0.000000000000000000e+00 0.000000000000000000e+00 0.000000000000000000e+00 1.543765699999999974e+01 0.000000000000000000e+00 0.000000000000000000e+00 0.000000000000000000e+00 1.429406600000000083e+01
1.344341200000000036e+01 0.000000000000000000e+00 0.000000000000000000e+00 0.000000000000000000e+00 1.546113000000000071e+01 0.000000000000000000e+00 0.000000000000000000e+00 0.000000000000000000e+00 1.461339399999999955e+01
1.325460999999999956e+01 0.000000000000000000e+00 0.000000000000000000e+00 0.000000000000000000e+00 1.530105999999999966e+01 0.000000000000000000e+00 0.000000000000000000e+00 0.000000000000000000e+00 1.412844100000000047e+01
1.306575600000000037e+01 0.000000000000000000e+00 0.000000000000000000e+00 0.000000000000000000e+00 1.537351300000000087e+01 0.000000000000000000e+00 0.000000000000000000e+00 0.000000000000000000e+00 1.429087299999999949e+01
1.296495999999999960e+01 0.000000000000000000e+00 0.000000000000000000e+00 0.000000000000000000e+00 1.493690199999999990e+01 0.000000000000000000e+00 0.000000000000000000e+00 0.000000000000000000e+00 1.436401200000000067e+01
1.339129999999999932e+01 0.000000000000000000e+00 0.000000000000000000e+00 0.000000000000000000e+00 1.528161899999999918e+01 0.000000000000000000e+00 0.000000000000000000e+00 0.000000000000000000e+00 1.443244900000000008e+01
1.332406499999999916e+01 0.000000000000000000e+00 0.000000000000000000e+00 0.000000000000000000e+00 1.518415899999999930e+01 0.000000000000000000e+00 0.000000000000000000e+00 0.000000000000000000e+00 1.398430500000000087e+01
1.346068700000000007e+01 0.000000000000000000e+00 0.000000000000000000e+00 0.000000000000000000e+00 1.531584100000000070e+01 0.000000000000000000e+00 0.000000000000000000e+00 0.000000000000000000e+00 1.451417700000000011e+01
1.328694100000000056e+01 0.000000000000000000e+00 0.000000000000000000e+00 0.000000000000000000e+00 1.522334299999999985e+01 0.000000000000000000e+00 0.000000000000000000e+00 0.000000000000000000e+00 1.464573500000000017e+01
1.314981399999999923e+01 0.000000000000000000e+00 0.000000000000000000e+00 0.000000000000000000e+00 1.495506199999999986e+01 0.000000000000000000e+00 0.000000000000000000e+00 0.000000000000000000e+00 1.437039799999999978e+01
1.299111699999999914e+01 0.000000000000000000e+00 0.000000000000000000e+00 0.000000000000000000e+00 1.559910700000000006e+01 0.000000000000000000e+00 0.000000000000000000e+00 0.000000000000000000e+00 1.414851099999999917e+01
1.293776399999999960e+01 0.000000000000000000e+00 0.000000000000000000e+00 0.000000000000000000e+00 1.543659099999999995e+01 0.000000000000000000e+00 0.000000000000000000e+00 0.000000000000000000e+00 1.439885800000000060e+01
1.307273200000000024e+01 0.000000000000000000e+00 0.000000000000000000e+00 0.000000000000000000e+00 1.501894300000000015e+01 0.000000000000000000e+00 0.000000000000000000e+00 0.000000000000000000e+00 1.415522900000000028e+01
1.313502800000000015e+01 0.000000000000000000e+00 0.000000000000000000e+00 0.000000000000000000e+00 1.499868599999999930e+01 0.000000000000000000e+00 0.000000000000000000e+00 0.000000000000000000e+00 1.439575699999999969e+01
1.351558299999999946e+01 0.000000000000000000e+00 0.000000000000000000e+00 0.000000000000000000e+00 1.495205600000000068e+01 0.000000000000000000e+00 0.000000000000000000e+00 0.000000000000000000e+00 1.421703399999999995e+01
1.315474599999999938e+01 0.000000000000000000e+00 0.000000000000000000e+00 0.000000000000000000e+00 1.521250900000000073e+01 0.000000000000000000e+00 0.000000000000000000e+00 0.000000000000000000e+00 1.431233600000000017e+01
1.352060700000000004e+01 0.000000000000000000e+00 0.000000000000000000e+00 0.000000000000000000e+00 1.519139799999999951e+01 0.000000000000000000e+00 0.000000000000000000e+00 0.000000000000000000e+00 1.413602200000000053e+01
1.320335200000000064e+01 0.000000000000000000e+00 0.000000000000000000e+00 0.000000000000000000e+00 1.523932899999999968e+01 0.000000000000000000e+00 0.000000000000000000e+00 0.000000000000000000e+00 1.441465200000000024e+01
1.357737499999999997e+01 0.000000000000000000e+00 0.000000000000000000e+00 0.000000000000000000e+00 1.498962299999999992e+01 0.000000000000000000e+00 0.000000000000000000e+00 0.000000000000000000e+00 1.411537500000000023e+01
1.310719600000000007e+01 0.000000000000000000e+00 0.000000000000000000e+00 0.000000000000000000e+00 1.512418899999999944e+01 0.000000000000000000e+00 0.000000000000000000e+00 0.000000000000000000e+00 1.401968899999999962e+01
1.313915700000000086e+01 0.000000000000000000e+00 0.000000000000000000e+00 0.000000000000000000e+00 1.503847099999999948e+01 0.000000000000000000e+00 0.000000000000000000e+00 0.000000000000000000e+00 1.467823899999999959e+01
1.330823600000000084e+01 0.000000000000000000e+00 0.000000000000000000e+00 0.000000000000000000e+00 1.529752299999999998e+01 0.000000000000000000e+00 0.000000000000000000e+00 0.000000000000000000e+00 1.437961499999999937e+01
1.344818399999999947e+01 0.000000000000000000e+00 0.000000000000000000e+00 0.000000000000000000e+00 1.515090700000000012e+01 0.000000000000000000e+00 0.000000000000000000e+00 0.000000000000000000e+00 1.419738599999999984e+01
1.293240199999999973e+01 0.000000000000000000e+00 0.000000000000000000e+00 0.000000000000000000e+00 1.520538900000000027e+01 0.000000000000000000e+00 0.000000000000000000e+00 0.000000000000000000e+00 1.415712899999999941e+01
1.354214400000000040e+01 0.000000000000000000e+00 0.000000000000000000e+00 0.000000000000000000e+00 1.513141399999999948e+01 0.000000000000000000e+00 0.000000000000000000e+00 0.000000000000000000e+00 1.451829299999999989e+01
1.319333499999999937e+01 0.000000000000000000e+00 0.000000000000000000e+00 0.000000000000000000e+00 1.505469300000000032e+01 0.000000000000000000e+00 0.000000000000000000e+00 0.000000000000000000e+00 1.432339699999999993e+01
1.311261200000000038e+01 0.000000000000000000e+00 0.000000000000000000e+00 0.000000000000000000e+00 1.502288700000000077e+01 0.000000000000000000e+00 0.000000000000000000e+00 0.000000000000000000e+00 1.436095700000000086e+01
1.318604000000000021e+01 0.000000000000000000e+00 0.000000000000000000e+00 0.000000000000000000e+00 1.524018399999999929e+01 0.000000000000000000e+00 0.000000000000000000e+00 0.000000000000000000e+00 1.446088999999999913e+01
1.358666200000000046e+01 0.000000000000000000e+00 0.000000000000000000e+00 0.000000000000000000e+00 1.559012700000000073e+01 0.000000000000000000e+00 0.000000000000000000e+00 0.000000000000000000e+00 1.436642900000000012e+01
1.345154699999999970e+01 0.000000000000000000e+00 0.000000000000000000e+00 0.000000000000000000e+00 1.520138700000000043e+01 0.000000000000000000e+00 0.000000000000000000e+00 0.000000000000000000e+00 1.423083399999999976e+01
1.347173100000000012e+01 0.000000000000000000e+00 0.000000000000000000e+00 0.000000000000000000e+00 1.499418099999999932e+01 0.000000000000000000e+00 0.000000000000000000e+00 0.000000000000000000e+00 1.441315799999999925e+01
1.313500900000000016e+01 0.000000000000000000e+00 0.000000000000000000e+00 0.000000000000000000e+00 1.519635500000000050e+01 0.000000000000000000e+00 0.000000000000000000e+00 0.000000000000000000e+00 1.433031700000000086e+01
1.331947199999999931e+01 0.000000000000000000e+00 0.000000000000000000e+00 0.000000000000000000e+00 1.526086699999999929e+01 0.000000000000000000e+00 0.000000000000000000e+00 0.000000000000000000e+00 1.426620999999999917e+01
1.352234400000000036e+01 0.000000000000000000e+00 0.000000000000000000e+00 0.000000000000000000e+00 1.505458800000000075e+01 0.000000000000000000e+00 0.000000000000000000e+00 0.000000000000000000e+00 1.442923399999999923e+01
1.322711400000000026e+01 0.000000000000000000e+00 0.000000000000000000e+00 0.000000000000000000e+00 1.521590199999999982e+01 0.000000000000000000e+00 0.000000000000000000e+00 0.000000000000000000e+00 1.440637100000000004e+01
1.356117500000000042e+01 0.000000000000000000e+00 0.000000000000000000e+00 0.000000000000000000e+00 1.503041799999999917e+01 0.000000000000000000e+00 0.000000000000000000e+00 0.000000000000000000e+00 1.418751800000000074e+01
1.343269899999999950e+01 0.000000000000000000e+00 0.000000000000000000e+00 0.000000000000000000e+00 1.511903000000000041e+01 0.000000000000000000e+00 0.000000000000000000e+00 0.000000000000000000e+00 1.419850899999999960e+01
1.346140499999999918e+01 0.000000000000000000e+00 0.000000000000000000e+00 0.000000000000000000e+00 1.485609099999999927e+01 0.000000000000000000e+00 0.000000000000000000e+00 0.000000000000000000e+00 1.427434700000000056e+01
1.333479799999999926e+01 0.000000000000000000e+00 0.000000000000000000e+00 0.000000000000000000e+00 1.552168700000000001e+01 0.000000000000000000e+00 0.000000000000000000e+00 0.000000000000000000e+00 1.440963700000000003e+01
1.327177299999999960e+01 0.000000000000000000e+00 0.000000000000000000e+00 0.000000000000000000e+00 1.503991100000000003e+01 0.000000000000000000e+00 0.000000000000000000e+00 0.000000000000000000e+00 1.435246599999999972e+01
1.356495800000000074e+01 0.000000000000000000e+00 0.000000000000000000e+00 0.000000000000000000e+00 1.516340600000000016e+01 0.000000000000000000e+00 0.000000000000000000e+00 0.000000000000000000e+00 1.415312400000000004e+01
1.311186400000000063e+01 0.000000000000000000e+00 0.000000000000000000e+00 0.000000000000000000e+00 1.537369699999999995e+01 0.000000000000000000e+00 0.000000000000000000e+00 0.000000000000000000e+00 1.412437800000000010e+01
1.361300199999999982e+01 0.000000000000000000e+00 0.000000000000000000e+00 0.000000000000000000e+00 1.489571899999999971e+01 0.000000000000000000e+00 0.000000000000000000e+00 0.000000000000000000e+00 1.421320599999999956e+01
1.341675599999999946e+01 0.000000000000000000e+00 0.000000000000000000e+00 0.000000000000000000e+00 1.521847999999999956e+01 0.000000000000000000e+00 0.000000000000000000e+00 0.000000000000000000e+00 1.449499899999999997e+01
1.348196399999999961e+01 0.000000000000000000e+00 0.000000000000000000e+00 0.000000000000000000e+00 1.539718000000000053e+01 0.000000000000000000e+00 0.000000000000000000e+00 0.000000000000000000e+00 1.395098800000000061e+01
1.319772099999999959e+01 0.000000000000000000e+00 0.000000000000000000e+00 0.000000000000000000e+00 1.493697700000000061e+01 0.000000000000000000e+00 0.000000000000000000e+00 0.000000000000000000e+00 1.427208700000000086e+01
1.310111999999999988e+01 0.000000000000000000e+00 0.000000000000000000e+00 0.000000000000000000e+00 1.523261600000000016e+01 0.000000000000000000e+00 0.000000000000000000e+00 0.000000000000000000e+00 1.430767099999999914e+01
1.357459399999999938e+01 0.000000000000000000e+00 0.000000000000000000e+00 0.000000000000000000e+00 1.487662599999999991e+01 0.000000000000000000e+00 0.000000000000000000e+00 0.000000000000000000e+00 1.433327000000000062e+01
1.313293299999999952e+01 0.000000000000000000e+00 0.000000000000000000e+00 0.000000000000000000e+00 1.526896499999999968e+01 0.000000000000000000e+00 0.000000000000000000e+00 0.000000000000000000e+00 1.441599899999999934e+01
1.332365500000000047e+01 0.000000000000000000e+00 0.000000000000000000e+00 0.000000000000000000e+00 1.533439300000000038e+01 0.000000000000000000e+00 0.000000000000000000e+00 0.000000000000000000e+00 1.413357799999999997e+01
1.340304399999999951e+01 0.000000000000000000e+00 0.000000000000000000e+00 0.000000000000000000e+00 1.535726099999999938e+01 0.000000000000000000e+00 0.000000000000000000e+00 0.000000000000000000e+00 1.461909799999999926e+01
1.317109899999999989e+01 0.000000000000000000e+00 0.000000000000000000e+00 0.000000000000000000e+00 1.541681799999999924e+01 0.000000000000000000e+00 0.000000000000000000e+00 0.000000000000000000e+00 1.436005199999999959e+01
1.370362199999999930e+01 0.000000000000000000e+00 0.000000000000000000e+00 0.000000000000000000e+00 1.498723500000000008e+01 0.000000000000000000e+00 0.000000000000000000e+00 0.000000000000000000e+00 1.441766800000000082e+01
1.330947100000000027e+01 0.000000000000000000e+00 0.000000000000000000e+00 0.000000000000000000e+00 1.518847899999999917e+01 0.000000000000000000e+00 0.000000000000000000e+00 0.000000000000000000e+00 1.433475199999999994e+01
1.328471799999999980e+01 0.000000000000000000e+00 0.000000000000000000e+00 0.000000000000000000e+00 1.498746900000000082e+01 0.000000000000000000e+00 0.000000000000000000e+00 0.000000000000000000e+00 1.420097299999999940e+01
1.337868199999999952e+01 0.000000000000000000e+00 0.000000000000000000e+00 0.000000000000000000e+00 1.521580299999999930e+01 0.000000000000000000e+00 0.000000000000000000e+00 0.000000000000000000e+00 1.431702199999999969e+01
1.287148299999999956e+01 0.000000000000000000e+00 0.000000000000000000e+00 0.000000000000000000e+00 1.499931699999999957e+01 0.000000000000000000e+00 0.000000000000000000e+00 0.000000000000000000e+00 1.468895400000000073e+01
1.348905599999999971e+01 0.000000000000000000e+00 0.000000000000000000e+00 0.000000000000000000e+00 1.553220800000000068e+01 0.000000000000000000e+00 0.000000000000000000e+00 0.000000000000000000e+00 1.382189200000000007e+01
1.340641100000000030e+01 0.000000000000000000e+00 0.000000000000000000e+00 0.000000000000000000e+00 1.505907799999999952e+01 0.000000000000000000e+00 0.000000000000000000e+00 0.000000000000000000e+00 1.441897499999999965e+01
1.333920799999999929e+01 0.000000000000000000e+00 0.000000000000000000e+00 0.000000000000000000e+00 1.504386799999999980e+01 0.000000000000000000e+00 0.000000000000000000e+00 0.000000000000000000e+00 1.429357800000000012e+01
1.335329300000000075e+01 0.000000000000000000e+00 0.000000000000000000e+00 0.000000000000000000e+00 1.524157100000000042e+01 0.000000000000000000e+00 0.000000000000000000e+00 0.000000000000000000e+00 1.457130000000000081e+01
1.316670399999999930e+01 0.000000000000000000e+00 0.000000000000000000e+00 0.000000000000000000e+00 1.529028600000000004e+01 0.000000000000000000e+00 0.000000000000000000e+00 0.000000000000000000e+00 1.407208600000000054e+01
1.300225299999999962e+01 0.000000000000000000e+00 0.000000000000000000e+00 0.000000000000000000e+00 1.531820800000000027e+01 0.000000000000000000e+00 0.000000000000000000e+00 0.000000000000000000e+00 1.440843100000000021e+01
1.378911300000000040e+01 0.000000000000000000e+00 0.000000000000000000e+00 0.000000000000000000e+00 1.512862200000000001e+01 0.000000000000000000e+00 0.000000000000000000e+00 0.000000000000000000e+00 1.410575900000000082e+01
1.317015899999999995e+01 0.000000000000000000e+00 0.000000000000000000e+00 0.000000000000000000e+00 1.495082999999999984e+01 0.000000000000000000e+00 0.000000000000000000e+00 0.000000000000000000e+00 1.429597000000000051e+01
1.332964100000000052e+01 0.000000000000000000e+00 0.000000000000000000e+00 0.000000000000000000e+00 1.529300899999999963e+01 0.000000000000000000e+00 0.000000000000000000e+00 0.000000000000000000e+00 1.436101700000000037e+01
1.352327599999999919e+01 0.000000000000000000e+00 0.000000000000000000e+00 0.000000000000000000e+00 1.494714800000000032e+01 0.000000000000000000e+00 0.000000000000000000e+00 0.000000000000000000e+00 1.435897899999999971e+01
1.336813899999999933e+01 0.000000000000000000e+00 0.000000000000000000e+00 0.000000000000000000e+00 1.514866199999999985e+01 0.000000000000000000e+00 0.000000000000000000e+00 0.000000000000000000e+00 1.429513299999999987e+01
1.309680600000000084e+01 0.000000000000000000e+00 0.000000000000000000e+00 0.000000000000000000e+00 1.510912700000000086e+01 0.000000000000000000e+00 0.000000000000000000e+00 0.000000000000000000e+00 1.452994100000000088e+01
1.355442399999999914e+01 0.000000000000000000e+00 0.000000000000000000e+00 0.000000000000000000e+00 1.497277899999999917e+01 0.000000000000000000e+00 0.000000000000000000e+00 0.000000000000000000e+00 1.429872600000000027e+01
1.303658399999999951e+01 0.000000000000000000e+00 0.000000000000000000e+00 0.000000000000000000e+00 1.527756199999999964e+01 0.000000000000000000e+00 0.000000000000000000e+00 0.000000000000000000e+00 1.426266700000000043e+01
1.329583599999999954e+01 0.000000000000000000e+00 0.000000000000000000e+00 0.000000000000000000e+00 1.501408799999999921e+01 0.000000000000000000e+00 0.000000000000000000e+00 0.000000000000000000e+00 1.458779099999999929e+01
1.300878699999999988e+01 0.000000000000000000e+00 0.000000000000000000e+00 0.000000000000000000e+00 1.519312500000000021e+01 0.000000000000000000e+00 0.000000000000000000e+00 0.000000000000000000e+00 1.400764400000000087e+01
1.303017900000000040e+01 0.000000000000000000e+00 0.000000000000000000e+00 0.000000000000000000e+00 1.521025200000000055e+01 0.000000000000000000e+00 0.000000000000000000e+00 0.000000000000000000e+00 1.430568199999999912e+01
1.322454699999999939e+01 0.000000000000000000e+00 0.000000000000000000e+00 0.000000000000000000e+00 1.513915700000000086e+01 0.000000000000000000e+00 0.000000000000000000e+00 0.000000000000000000e+00 1.424312399999999990e+01
1.331159000000000070e+01 0.000000000000000000e+00 0.000000000000000000e+00 0.000000000000000000e+00 1.521319599999999994e+01 0.000000000000000000e+00 0.000000000000000000e+00 0.000000000000000000e+00 1.465432500000000005e+01
1.340287000000000006e+01 0.000000000000000000e+00 0.000000000000000000e+00 0.000000000000000000e+00 1.526838099999999976e+01 0.000000000000000000e+00 0.000000000000000000e+00 0.000000000000000000e+00 1.441147400000000012e+01
1.330991200000000063e+01 0.000000000000000000e+00 0.000000000000000000e+00 0.000000000000000000e+00 1.510830499999999965e+01 0.000000000000000000e+00 0.000000000000000000e+00 0.000000000000000000e+00 1.429052300000000031e+01
1.351937500000000014e+01 0.000000000000000000e+00 0.000000000000000000e+00 0.000000000000000000e+00 1.527077899999999921e+01 0.000000000000000000e+00 0.000000000000000000e+00 0.000000000000000000e+00 1.471345299999999945e+01
1.313684600000000025e+01 0.000000000000000000e+00 0.000000000000000000e+00 0.000000000000000000e+00 1.490458199999999955e+01 0.000000000000000000e+00 0.000000000000000000e+00 0.000000000000000000e+00 1.428955400000000076e+01
1.326693700000000042e+01 0.000000000000000000e+00 0.000000000000000000e+00 0.000000000000000000e+00 1.516061000000000014e+01 0.000000000000000000e+00 0.000000000000000000e+00 0.000000000000000000e+00 1.398651899999999948e+01
1.348589899999999986e+01 0.000000000000000000e+00 0.000000000000000000e+00 0.000000000000000000e+00 1.504498899999999928e+01 0.000000000000000000e+00 0.000000000000000000e+00 0.000000000000000000e+00 1.444882800000000067e+01
1.343272699999999986e+01 0.000000000000000000e+00 0.000000000000000000e+00 0.000000000000000000e+00 1.528312200000000054e+01 0.000000000000000000e+00 0.000000000000000000e+00 0.000000000000000000e+00 1.418009400000000042e+01
1.320275600000000082e+01 0.000000000000000000e+00 0.000000000000000000e+00 0.000000000000000000e+00 1.523124600000000051e+01 0.000000000000000000e+00 0.000000000000000000e+00 0.000000000000000000e+00 1.421201699999999946e+01
1.312413899999999956e+01 0.000000000000000000e+00 0.000000000000000000e+00 0.000000000000000000e+00 1.512461300000000008e+01 0.000000000000000000e+00 0.000000000000000000e+00 0.000000000000000000e+00 1.436404399999999981e+01
1.324962799999999952e+01 0.000000000000000000e+00 0.000000000000000000e+00 0.000000000000000000e+00 1.504778699999999958e+01 0.000000000000000000e+00 0.000000000000000000e+00 0.000000000000000000e+00 1.437688400000000044e+01
1.359730399999999939e+01 0.000000000000000000e+00 0.000000000000000000e+00 0.000000000000000000e+00 1.520169300000000057e+01 0.000000000000000000e+00 0.000000000000000000e+00 0.000000000000000000e+00 1.428051600000000043e+01
1.331828800000000079e+01 0.000000000000000000e+00 0.000000000000000000e+00 0.000000000000000000e+00 1.548165099999999939e+01 0.000000000000000000e+00 0.000000000000000000e+00 0.000000000000000000e+00 1.448421899999999951e+01
1.345224800000000087e+01 0.000000000000000000e+00 0.000000000000000000e+00 0.000000000000000000e+00 1.514036399999999993e+01 0.000000000000000000e+00 0.000000000000000000e+00 0.000000000000000000e+00 1.434332799999999963e+01
1.350802599999999920e+01 0.000000000000000000e+00 0.000000000000000000e+00 0.000000000000000000e+00 1.502728699999999940e+01 0.000000000000000000e+00 0.000000000000000000e+00 0.000000000000000000e+00 1.419190299999999993e+01
1.336694199999999988e+01 0.000000000000000000e+00 0.000000000000000000e+00 0.000000000000000000e+00 1.511742399999999975e+01 0.000000000000000000e+00 0.000000000000000000e+00 0.000000000000000000e+00 1.432073300000000060e+01
1.316009299999999982e+01 0.000000000000000000e+00 0.000000000000000000e+00 0.000000000000000000e+00 1.516751499999999986e+01 0.000000000000000000e+00 0.000000000000000000e+00 0.000000000000000000e+00 1.409194100000000027e+01
1.322713300000000025e+01 0.000000000000000000e+00 0.000000000000000000e+00 0.000000000000000000e+00 1.533863299999999974e+01 0.000000000000000000e+00 0.000000000000000000e+00 0.000000000000000000e+00 1.425782300000000014e+01
1.335963500000000082e+01 0.000000000000000000e+00 0.000000000000000000e+00 0.000000000000000000e+00 1.519706099999999971e+01 0.000000000000000000e+00 0.000000000000000000e+00 0.000000000000000000e+00 1.422247899999999987e+01
1.332376700000000014e+01 0.000000000000000000e+00 0.000000000000000000e+00 0.000000000000000000e+00 1.498251899999999992e+01 0.000000000000000000e+00 0.000000000000000000e+00 0.000000000000000000e+00 1.417913599999999974e+01
1.308109900000000003e+01 0.000000000000000000e+00 0.000000000000000000e+00 0.000000000000000000e+00 1.496678299999999950e+01 0.000000000000000000e+00 0.000000000000000000e+00 0.000000000000000000e+00 1.427910400000000024e+01
1.355509900000000023e+01 0.000000000000000000e+00 0.000000000000000000e+00 0.000000000000000000e+00 1.546232200000000034e+01 0.000000000000000000e+00 0.000000000000000000e+00 0.000000000000000000e+00 1.397321099999999916e+01
1.341076200000000007e+01 0.000000000000000000e+00 0.000000000000000000e+00 0.000000000000000000e+00 1.521624199999999938e+01 0.000000000000000000e+00 0.000000000000000000e+00 0.000000000000000000e+00 1.432947899999999919e+01
1.336465899999999962e+01 0.000000000000000000e+00 0.000000000000000000e+00 0.000000000000000000e+00 1.528498500000000071e+01 0.000000000000000000e+00 0.000000000000000000e+00 0.000000000000000000e+00 1.417471500000000084e+01