-4.515288829999999871e+04
-4.516081530000000203e+04
-4.515968020000000251e+04
-4.516412750000000233e+04
-4.516379759999999806e+04
-4.515119890000000305e+04
-4.515084139999999752e+04
-4.515835310000000027e+04
-4.515890499999999884e+04
-4.515703259999999864e+04
-4.515406539999999950e+04
-4.516420979999999690e+04
-4.515679529999999795e+04
-4.516160169999999925e+04
-4.515921459999999934e+04
-4.516377709999999934e+04
-4.515842719999999827e+04
-4.515193110000000161e+04
-4.515131380000000354e+04
-4.515155200000000332e+04
-4.516168650000000343e+04
-4.516812460000000283e+04
-4.516220199999999750e+04
-4.515999970000000030e+04
-4.515958099999999831e+04
-4.516048500000000058e+04
-4.515951959999999963e+04
-4.516532119999999850e+04
-4.515686000000000058e+04
-4.516339989999999671e+04
-4.515276870000000054e+04
-4.516819269999999960e+04
-4.516497540000000299e+04
-4.516035130000000208e+04
-4.516583400000000256e+04
-4.516895219999999972e+04
-4.515179310000000260e+04
-4.516308320000000094e+04
-4.515864209999999730e+04
-4.516485040000000299e+04
-4.514290690000000177e+04
-4.516760700000000361e+04
-4.516605359999999928e+04
-4.515687430000000313e+04
-4.515425800000000163e+04
-4.515979839999999967e+04
-4.514830260000000271e+04
-4.515584990000000107e+04
-4.515334750000000349e+04
-4.515999500000000262e+04
-4.515959889999999723e+04
-4.516463680000000022e+04
-4.514416790000000037e+04
-4.515482620000000315e+04
-4.516077599999999802e+04
-4.516555339999999705e+04
-4.516352949999999691e+04
-4.515957590000000346e+04
-4.516523419999999896e+04
-4.515872980000000098e+04
-4.515351750000000175e+04
-4.516544150000000081e+04
-4.516351090000000113e+04
-4.516507299999999668e+04
-4.516342199999999866e+04
-4.515828770000000077e+04
-4.516525269999999728e+04
-4.516625269999999728e+04
-4.515715920000000187e+04
-4.515932340000000113e+04
-4.515880139999999665e+04
-4.514239660000000003e+04
-4.515758310000000347e+04
-4.515512890000000334e+04
-4.516424839999999676e+04
-4.515626449999999750e+04
-4.515469410000000062e+04
-4.516554729999999836e+04
-4.515510919999999896e+04
-4.514734419999999955e+04
-4.516191490000000340e+04
-4.515993490000000020e+04
-4.516458279999999650e+04
-4.515280249999999796e+04
-4.516812380000000121e+04
-4.516649500000000262e+04
-4.515680339999999705e+04
-4.516412960000000021e+04
-4.514846689999999944e+04
-4.515908959999999934e+04
-4.515702399999999761e+04
-4.515499130000000150e+04
-4.516294039999999950e+04
-4.516173249999999825e+04
-4.516842149999999674e+04
-4.515310519999999815e+04
-4.516591500000000087e+04
-4.515843920000000071e+04
-4.515223810000000231e+04
-4.516368200000000070e+04
-4.516402999999999884e+04
-4.516029989999999816e+04
-4.516371510000000126e+04
-4.516337030000000232e+04
-4.515956659999999829e+04
-4.515804260000000068e+04
-4.514159739999999874e+04
-4.515935639999999694e+04
-4.516242990000000282e+04
-4.516890510000000359e+04
-4.516424440000000322e+04
-4.516136230000000069e+04
-4.516826469999999972e+04
-4.515118149999999878e+04
-4.515214639999999781e+04
-4.516366780000000290e+04
-4.516297550000000047e+04
-4.515417280000000028e+04
-4.516340540000000328e+04
-4.516273150000000169e+04
-4.516173900000000140e+04
-4.516841490000000340e+04
-4.516266790000000037e+04
-4.515511800000000221e+04
-4.515621209999999701e+04
-4.515104460000000108e+04
-4.516303239999999641e+04
-4.516036269999999786e+04
-4.515605299999999988e+04
-4.514630700000000070e+04
-4.515798240000000078e+04
-4.516554189999999653e+04
-4.515728839999999764e+04
-4.516390490000000136e+04
-4.515933150000000023e+04
-4.515642319999999745e+04
-4.515695270000000164e+04
-4.515949629999999888e+04
-4.515552960000000166e+04
-4.516106569999999920e+04
-4.515552040000000125e+04
-4.516500179999999818e+04
-4.515587619999999879e+04
-4.516209739999999874e+04
-4.516166900000000169e+04
-4.514637230000000272e+04
-4.516286110000000190e+04
-4.516186400000000140e+04
-4.515819090000000142e+04
-4.516343899999999849e+04
-4.515711729999999807e+04
-4.514621250000000146e+04
-4.515806960000000254e+04
-4.516519049999999697e+04
-4.515779600000000210e+04
-4.515553010000000359e+04
-4.516099809999999707e+04
-4.516182660000000033e+04
-4.516698530000000028e+04
-4.516188730000000214e+04
-4.516252249999999913e+04
-4.513375359999999637e+04
-4.515724049999999988e+04
-4.514092369999999937e+04
-4.516348129999999946e+04
-4.515402219999999943e+04
-4.516520160000000033e+04
-4.516567040000000270e+04
-4.516285489999999845e+04
-4.516506579999999667e+04
-4.516696489999999903e+04
-4.516032039999999688e+04
-4.516428110000000015e+04
-4.515649440000000322e+04
-4.516298230000000331e+04
-4.516681919999999809e+04
-4.516356960000000254e+04
-4.515998329999999987e+04
-4.514359679999999935e+04
-4.516563300000000163e+04
-4.516322540000000299e+04
-4.515751350000000093e+04
-4.515527769999999873e+04
-4.515188070000000153e+04
-4.515991339999999764e+04
-4.516230010000000038e+04
-4.516521579999999813e+04
-4.515608969999999681e+04
-4.516424049999999988e+04
-4.515423999999999796e+04
-4.516410119999999733e+04
-4.516066010000000097e+04
-4.515738560000000143e+04
-4.516611439999999857e+04
-4.516556330000000162e+04
-4.516576049999999668e+04
-4.516317169999999896e+04
-4.516128940000000148e+04
-4.515529129999999714e+04
-4.515244400000000314e+04
-4.515760700000000361e+04
-4.516184900000000198e+04
-4.516362120000000141e+04
-4.515145700000000215e+04
-4.514566790000000037e+04
-4.515142360000000190e+04
-4.516301030000000173e+04
-4.513208060000000114e+04
-4.516796680000000197e+04
-4.515813719999999739e+04
-4.515959180000000197e+04
-4.516429720000000088e+04
-4.515766120000000228e+04
-4.516053029999999853e+04
-4.516571429999999964e+04
-4.516524779999999737e+04
-4.516071949999999924e+04
-4.516138429999999789e+04
-4.516254370000000199e+04
-4.516154060000000027e+04
-4.516002199999999721e+04
-4.516524139999999898e+04
-4.515931270000000222e+04
-4.516113010000000213e+04
-4.516803050000000076e+04
-4.514793250000000262e+04
-4.516755380000000150e+04
-4.515350230000000010e+04
-4.514649319999999716e+04
-4.515069739999999729e+04
-4.516318880000000354e+04
-4.516173939999999857e+04
-4.516189439999999740e+04
-4.515261830000000191e+04
-4.515997639999999956e+04
-4.515627049999999872e+04
-4.516178519999999844e+04
-4.516422469999999885e+04
-4.515564639999999781e+04
-4.516186310000000231e+04
-4.516196579999999813e+04
-4.516452969999999914e+04
-4.516741109999999753e+04
-4.516473470000000088e+04
-4.516043660000000091e+04
-4.516141689999999653e+04
-4.516334610000000248e+04
-4.514532789999999659e+04
-4.516566490000000340e+04
-4.514945919999999751e+04
-4.516032480000000214e+04
-4.516412039999999979e+04
-4.516287380000000121e+04
-4.515934219999999914e+04
-4.515918080000000191e+04
-4.516503169999999955e+04
-4.516591429999999673e+04
-4.514781500000000233e+04
-4.516231999999999971e+04
-4.516242710000000079e+04
-4.516065739999999641e+04
-4.514850710000000254e+04
-4.516594619999999850e+04
-4.516245240000000194e+04
-4.516520870000000286e+04
-4.515300979999999981e+04
-4.516538969999999972e+04
-4.516235179999999673e+04
-4.516214740000000165e+04
-4.516659320000000298e+04
-4.516298599999999715e+04
-4.515434739999999874e+04
-4.516279660000000149e+04
-4.515936869999999908e+04
-4.516763880000000063e+04
-4.514705460000000312e+04
-4.516617119999999704e+04
-4.516410869999999704e+04
-4.516273760000000038e+04
-4.515781609999999637e+04
-4.516346820000000298e+04
-4.514822310000000289e+04
-4.516615490000000136e+04
-4.515198629999999685e+04
-4.516544410000000062e+04
-4.515913109999999870e+04
-4.515594279999999708e+04
-4.515435910000000149e+04
-4.514621349999999802e+04
-4.515779860000000190e+04
-4.516779460000000108e+04
-4.516562670000000071e+04
-4.516155750000000262e+04
-4.516080849999999919e+04
-4.515967670000000362e+04
-4.515550690000000031e+04
-4.516205930000000080e+04
-4.515450979999999981e+04
-4.516050600000000122e+04
-4.516357639999999810e+04
-4.516343170000000100e+04
-4.515137030000000232e+04
-4.516072209999999905e+04
-4.516745850000000064e+04
-4.514642700000000332e+04
-4.515420059999999648e+04
-4.514825489999999991e+04
-4.513471319999999832e+04
-4.514980690000000322e+04
-4.516533179999999993e+04
-4.516599360000000161e+04
-4.516498150000000169e+04
-4.516658780000000115e+04
-4.515926810000000114e+04
-4.515618660000000091e+04
-4.515137580000000162e+04
-4.516520040000000154e+04
-4.515856139999999868e+04
-4.515776380000000063e+04
-4.515917880000000150e+04
-4.516488769999999931e+04
-4.514082660000000033e+04
-4.514788130000000092e+04
-4.516135220000000118e+04
-4.516513079999999900e+04
-4.516151219999999739e+04
-4.516764469999999710e+04
-4.516704600000000210e+04
-4.514573120000000199e+04
-4.516071530000000348e+04
-4.515334079999999813e+04
-4.516402229999999690e+04
-4.516362739999999758e+04
-4.515710439999999653e+04
-4.516340989999999874e+04
-4.515862500000000000e+04
-4.516819269999999960e+04
-4.516246800000000076e+04
-4.515908619999999792e+04
-4.514571560000000318e+04
-4.516035139999999956e+04
-4.516617020000000048e+04
-4.516085139999999956e+04
-4.515232029999999941e+04
-4.515389340000000084e+04
-4.516228360000000248e+04
-4.515572709999999643e+04
-4.515393819999999687e+04
-4.515502019999999902e+04
-4.516153859999999986e+04
-4.514963599999999860e+04
-4.516545369999999821e+04
-4.515171390000000247e+04
-4.516684279999999853e+04
-4.515815600000000268e+04
-4.515612230000000272e+04
-4.516253540000000066e+04
-4.515402109999999811e+04
-4.516390009999999893e+04
-4.514889620000000286e+04
-4.516133550000000105e+04
-4.516206010000000242e+04
-4.515358879999999772e+04
-4.516223969999999827e+04
-4.515920320000000356e+04
-4.515052810000000318e+04
-4.514412410000000091e+04
-4.516339439999999740e+04
-4.515596390000000247e+04
-4.516543549999999959e+04
-4.514751449999999750e+04
-4.515250489999999991e+04
-4.516167089999999735e+04
-4.514595380000000296e+04
-4.515108400000000256e+04
-4.516040400000000227e+04
-4.515940159999999742e+04
-4.515027999999999884e+04
-4.516604789999999775e+04
-4.515761899999999878e+04
-4.516278710000000137e+04
-4.516025600000000122e+04
-4.516312460000000283e+04
-4.515933170000000246e+04
-4.514453850000000239e+04
-4.516305490000000282e+04
-4.515999859999999899e+04
-4.515924519999999757e+04
-4.516105320000000211e+04
-4.515890679999999702e+04
-4.516257190000000264e+04
-4.516727760000000126e+04
-4.516448060000000260e+04
-4.516497540000000299e+04
-4.514992880000000150e+04
-4.515849930000000313e+04
-4.515959629999999743e+04
-4.515650450000000274e+04
-4.515708359999999811e+04
-4.515466629999999714e+04
-4.515198790000000008e+04
-4.515201789999999892e+04
-4.516532110000000102e+04
-4.516435609999999724e+04
-4.515278020000000106e+04
-4.516508999999999651e+04
-4.514856689999999799e+04
-4.516090239999999903e+04
-4.515109969999999885e+04
-4.515051890000000276e+04
-4.516658980000000156e+04
-4.515363730000000214e+04
-4.516297090000000026e+04
-4.516394920000000275e+04
-4.516033269999999902e+04
-4.515301610000000073e+04
-4.515895910000000003e+04
-4.516448720000000321e+04
-4.516589480000000185e+04
-4.515802719999999681e+04
-4.514995530000000144e+04
-4.516579559999999765e+04
-4.516650690000000031e+04
-4.515988270000000193e+04
-4.515661830000000191e+04
-4.516239790000000357e+04
-4.515533720000000176e+04
-4.516428450000000157e+04
-4.516251589999999851e+04
-4.516753220000000147e+04
-4.515887109999999666e+04
-4.516463629999999830e+04
-4.515933879999999772e+04
-4.516151870000000054e+04
-4.513728080000000045e+04
-4.516560599999999977e+04
-4.516518359999999666e+04
-4.516442059999999765e+04
-4.516504119999999966e+04
-4.516068830000000162e+04
-4.515347419999999693e+04
-4.516142179999999644e+04
-4.515713070000000153e+04
-4.516262700000000041e+04
-4.516448380000000179e+04
-4.515305939999999828e+04
-4.515908950000000186e+04
-4.516084079999999813e+04
-4.516823300000000017e+04
-4.516510059999999794e+04
-4.516586099999999715e+04
-4.516061540000000241e+04
-4.515399889999999868e+04
-4.516065209999999934e+04
-4.516005939999999828e+04
-4.516336099999999715e+04
-4.515753489999999874e+04
-4.515115550000000076e+04
-4.514565969999999652e+04
-4.516109530000000086e+04
-4.515798870000000170e+04
-4.515369269999999960e+04
-4.515946689999999944e+04
-4.516304400000000169e+04
-4.515077380000000267e+04
-4.515170969999999943e+04
-4.516404359999999724e+04
-4.515695070000000123e+04
-4.515568940000000293e+04
-4.515351539999999659e+04
-4.516998539999999775e+04
-4.515757639999999810e+04
-4.516229000000000087e+04
-4.516763779999999679e+04
-4.515974429999999847e+04
-4.513408090000000084e+04
-4.516274319999999716e+04
-4.514828530000000319e+04
-4.516252679999999964e+04
-4.516495459999999730e+04
-4.516058959999999934e+04
-4.516421110000000044e+04
-4.515197529999999824e+04
-4.516596549999999843e+04
-4.514430509999999776e+04
-4.515255060000000231e+04
-4.515932130000000325e+04
-4.515070889999999781e+04
-4.514228179999999702e+04
-4.515763509999999951e+04
-4.514197189999999682e+04
-4.516588760000000184e+04
-4.516506850000000122e+04
-4.516128409999999712e+04
-4.515966539999999804e+04
-4.516736510000000271e+04
-4.516866760000000068e+04
-4.515895229999999719e+04
-4.516257680000000255e+04
-4.516592309999999998e+04
-4.515562189999999828e+04
-4.516300430000000051e+04
-4.515702700000000186e+04
-4.515899489999999787e+04
-4.516137400000000343e+04
-4.515392349999999715e+04
-4.515150269999999728e+04
-4.515742300000000250e+04
-4.516216829999999754e+04
-4.516666619999999966e+04
-4.514086710000000312e+04
-4.516430320000000211e+04
-4.515223189999999886e+04
-4.515912410000000091e+04
-4.516182690000000002e+04
-4.516756990000000224e+04
-4.516759840000000258e+04
-4.516628970000000118e+04
-4.515777679999999964e+04
-4.516029600000000210e+04
-4.516014100000000326e+04
-4.515587109999999666e+04
-4.514423290000000270e+04
-4.516324390000000130e+04
-4.515486520000000019e+04
-4.516092399999999907e+04
-4.516591419999999925e+04
-4.515421420000000217e+04
-4.515346420000000217e+04
-4.516223419999999896e+04
-4.515976410000000033e+04
-4.515392519999999786e+04
-4.515926939999999740e+04
-4.516053190000000177e+04
-4.515787730000000010e+04
-4.514032770000000164e+04
-4.516546399999999994e+04
-4.516601189999999769e+04
-4.514230909999999858e+04
-4.516332089999999880e+04
-4.515978859999999986e+04
-4.515996880000000237e+04
-4.515863629999999830e+04
-4.516290879999999743e+04
-4.515475359999999637e+04
-4.515957729999999719e+04
-4.515884509999999864e+04
-4.516160130000000208e+04
-4.516087440000000061e+04
-4.515163610000000335e+04
-4.515917050000000017e+04
-4.515872849999999744e+04
-4.515806739999999991e+04
-4.516086370000000170e+04
-4.516126120000000083e+04
-4.514878570000000036e+04
-4.516480419999999867e+04
-4.514814590000000317e+04
-4.516190759999999864e+04
-4.515115499999999884e+04
-4.515037260000000242e+04
-4.516614319999999861e+04
-4.514780840000000171e+04
-4.516416490000000340e+04
-4.515710519999999815e+04
-4.516450540000000183e+04
-4.516187909999999829e+04
-4.516062769999999728e+04
-4.516574960000000283e+04
-4.516530279999999766e+04
-4.515410300000000279e+04
-4.515540800000000309e+04
-4.515645139999999810e+04
-4.515907729999999719e+04
-4.516036800000000221e+04
-4.516512049999999726e+04
-4.516670270000000164e+04
-4.515388900000000285e+04
-4.516650680000000284e+04
-4.515440720000000147e+04
-4.516796979999999894e+04
-4.516127519999999640e+04
-4.516210940000000119e+04
-4.515494299999999930e+04
-4.515934100000000035e+04
-4.515534470000000147e+04
-4.516681360000000132e+04
-4.515271989999999641e+04
-4.515525529999999708e+04
-4.516618059999999969e+04
-4.515591369999999733e+04
-4.515760740000000078e+04
-4.515443800000000192e+04
-4.516268409999999858e+04
-4.516198320000000240e+04
-4.516743370000000141e+04
-4.516288330000000133e+04
-4.515592210000000341e+04
-4.516813199999999779e+04
-4.515120070000000123e+04
-4.516573159999999916e+04
-4.515920580000000336e+04
-4.515604809999999998e+04
-4.515929720000000088e+04
-4.516802620000000024e+04
-4.515786490000000049e+04
-4.515666249999999854e+04
-4.516218390000000363e+04
-4.516222099999999773e+04
-4.516340529999999853e+04
-4.515824809999999707e+04
-4.516028850000000239e+04
-4.514348750000000291e+04
-4.516600379999999859e+04
-4.516274760000000242e+04
-4.516148619999999937e+04
-4.515981730000000243e+04
-4.516148120000000199e+04
-4.516427880000000005e+04
-4.516674399999999878e+04
-4.515129280000000290e+04
-4.515204250000000320e+04
-4.516386069999999745e+04
-4.516441750000000320e+04
-4.514263300000000163e+04
-4.515828250000000116e+04
-4.515826690000000235e+04
-4.516649749999999767e+04
-4.515763220000000001e+04
-4.515834139999999752e+04
-4.516498000000000320e+04
-4.515993759999999747e+04
-4.515796040000000357e+04
-4.515751009999999951e+04
-4.515784339999999793e+04
-4.515985929999999644e+04
-4.516036469999999827e+04
-4.515426440000000002e+04
-4.516504290000000037e+04
-4.516014669999999751e+04
-4.515036370000000170e+04
-4.515919299999999930e+04
-4.516825059999999939e+04
-4.514581049999999959e+04
-4.516061460000000079e+04
-4.515090750000000116e+04
-4.514980819999999949e+04
-4.515945300000000134e+04
-4.516279119999999966e+04
-4.516376630000000296e+04
-4.515708909999999742e+04
-4.514387649999999849e+04
-4.516351830000000336e+04
-4.515603229999999894e+04
-4.516371749999999884e+04
-4.516070109999999841e+04
-4.515053600000000006e+04
-4.514538749999999709e+04
-4.516216840000000229e+04
-4.515106429999999818e+04
-4.515217369999999937e+04
-4.515071669999999722e+04
-4.514927130000000034e+04
-4.516246310000000085e+04
-4.515631319999999687e+04
-4.515520650000000023e+04
-4.515295659999999771e+04
-4.516237230000000272e+04
-4.515893310000000201e+04
-4.516908810000000085e+04
-4.516637679999999818e+04
-4.515962339999999676e+04
-4.516568050000000221e+04
-4.516335910000000149e+04
-4.516525220000000263e+04
-4.516427169999999751e+04
-4.515991840000000229e+04
-4.516483090000000084e+04
-4.515752719999999681e+04
-4.515952040000000125e+04
-4.515159629999999743e+04
-4.515225069999999687e+04
-4.516261759999999776e+04
-4.515933430000000226e+04
-4.515679780000000028e+04
-4.515909870000000228e+04
-4.516388010000000213e+04
-4.514332740000000194e+04
-4.515729529999999795e+04
-4.516291359999999986e+04
-4.515154619999999704e+04
-4.515301840000000084e+04
-4.515292899999999645e+04
-4.516306029999999737e+04
-4.514018359999999666e+04
-4.516474300000000221e+04
-4.516536280000000261e+04
-4.515673649999999907e+04
-4.516598589999999967e+04
-4.516248070000000007e+04
-4.515524010000000271e+04
-4.514195900000000256e+04
-4.514262529999999970e+04
-4.515886570000000211e+04
-4.516875609999999870e+04
-4.516589830000000075e+04
-4.515737709999999788e+04
-4.516373530000000028e+04
-4.516810300000000279e+04
-4.515252859999999782e+04
-4.514615529999999853e+04
-4.516268970000000263e+04
-4.512357379999999830e+04
-4.515401000000000204e+04
-4.516498350000000210e+04
-4.516521910000000207e+04
-4.514378549999999814e+04
-4.514329220000000350e+04
-4.516047929999999906e+04
-4.515741859999999724e+04
-4.516231880000000092e+04
-4.516025690000000031e+04
-4.516151320000000123e+04
-4.516719060000000172e+04
-4.516238820000000123e+04
-4.516032540000000154e+04
-4.515942770000000019e+04
-4.515987690000000293e+04
-4.516724889999999868e+04
-4.516053880000000208e+04
-4.514602620000000024e+04
-4.515994630000000325e+04
-4.515765430000000197e+04
-4.516754800000000250e+04
-4.515873819999999978e+04
-4.515130189999999857e+04
-4.516490789999999834e+04
-4.516163779999999679e+04
-4.516274650000000111e+04
-4.515400170000000071e+04
-4.515971790000000328e+04
-4.516740239999999903e+04
-4.515830660000000353e+04
-4.515935530000000290e+04
-4.516489880000000267e+04
-4.515767650000000140e+04
-4.516324210000000312e+04
-4.515747069999999803e+04
-4.515623969999999827e+04
-4.516044900000000052e+04
-4.515820640000000276e+04
-4.516677479999999923e+04
-4.515559360000000015e+04
-4.515686059999999998e+04
-4.516231919999999809e+04
-4.514861200000000099e+04
-4.515653250000000116e+04
-4.516577709999999934e+04
-4.516472490000000107e+04
-4.515049820000000182e+04
-4.514539809999999852e+04
-4.516125929999999789e+04
-4.516079710000000341e+04
-4.515531710000000021e+04
-4.516544569999999658e+04
-4.514585360000000219e+04
-4.515579230000000098e+04
-4.515192809999999736e+04
-4.515046779999999853e+04
-4.515516599999999744e+04
-4.516214820000000327e+04
-4.516311349999999948e+04
-4.515789020000000164e+04
-4.514412799999999697e+04
-4.515459330000000045e+04
-4.515684900000000198e+04
-4.515720749999999680e+04
-4.516577330000000075e+04
-4.515598139999999694e+04
-4.516284109999999782e+04
-4.514100200000000041e+04
-4.516197219999999652e+04
-4.515649040000000241e+04
-4.515041350000000239e+04
-4.515905599999999686e+04
-4.514852749999999651e+04
-4.516279520000000048e+04
-4.515118020000000251e+04
-4.516023599999999715e+04
-4.515825099999999657e+04
-4.515852489999999671e+04
-4.515791589999999997e+04
-4.515658400000000256e+04
-4.515634719999999652e+04
-4.515500349999999889e+04
-4.515214759999999660e+04
-4.515256599999999889e+04
-4.515564979999999923e+04
-4.516261480000000302e+04
-4.515862309999999707e+04
-4.516205440000000090e+04
-4.516624500000000262e+04
-4.516382860000000073e+04
-4.515672239999999874e+04
-4.514545840000000317e+04
-4.515272729999999865e+04
-4.516446489999999903e+04
-4.515770309999999881e+04
-4.516246450000000186e+04
-4.516270549999999639e+04
-4.515425800000000163e+04
-4.516477659999999742e+04
-4.514255000000000291e+04
-4.516215260000000126e+04
-4.516406530000000203e+04
-4.515440200000000186e+04
-4.516170190000000002e+04
-4.515503059999999823e+04
-4.516284449999999924e+04
-4.516003390000000218e+04
-4.516578809999999794e+04
-4.516182319999999891e+04
-4.516335100000000239e+04
-4.516068329999999696e+04
-4.515216369999999733e+04
-4.515953940000000148e+04
-4.515936400000000140e+04
-4.515562440000000061e+04
-4.516549160000000120e+04
-4.516543119999999908e+04
-4.516446860000000015e+04
-4.516722189999999682e+04
-4.516521959999999672e+04
-4.515981279999999970e+04
-4.516421269999999640e+04
-4.515179499999999825e+04
-4.516769389999999839e+04
-4.515834850000000006e+04
-4.516641010000000097e+04
-4.516059199999999691e+04
-4.515050979999999981e+04
-4.516431620000000112e+04
-4.515764119999999821e+04
-4.514915709999999672e+04
-4.516267210000000341e+04
-4.515228740000000107e+04
-4.515360740000000078e+04
-4.515378239999999641e+04
-4.515161890000000130e+04
-4.515979159999999683e+04
-4.516343860000000132e+04
-4.515163049999999930e+04
-4.515460429999999906e+04
-4.516742500000000291e+04
-4.516425280000000203e+04
-4.516562509999999747e+04
-4.516540660000000207e+04
-4.515722600000000239e+04
-4.516346429999999964e+04
-4.514114360000000306e+04
-4.515559889999999723e+04
-4.516085919999999896e+04
-4.515934980000000360e+04
-4.515611920000000100e+04
-4.515554660000000149e+04
-4.516333269999999902e+04
-4.515410270000000310e+04
-4.515402060000000347e+04
-4.516424629999999888e+04
-4.515389489999999932e+04
-4.516101170000000275e+04
-4.516207940000000235e+04
-4.516519580000000133e+04
-4.516170410000000265e+04
-4.516120829999999842e+04
-4.515404200000000128e+04
-4.515400690000000031e+04
-4.516208239999999932e+04
-4.515967500000000291e+04
-4.514960190000000148e+04
-4.515114360000000306e+04
-4.515937019999999757e+04
-4.515605490000000282e+04
-4.516740320000000065e+04
-4.516414959999999701e+04
-4.516025370000000112e+04
-4.516419219999999768e+04
-4.516445659999999771e+04
-4.515985790000000270e+04
-4.516513629999999830e+04
-4.516502380000000267e+04
-4.515080359999999928e+04
-4.516246510000000126e+04
-4.516200669999999809e+04
-4.515539400000000023e+04
-4.515811460000000079e+04
-4.516432039999999688e+04
-4.516262930000000051e+04
-4.515257620000000315e+04
-4.516180799999999726e+04
-4.516321600000000035e+04
-4.514724379999999655e+04
-4.515745150000000285e+04
-4.515133069999999861e+04
-4.515154290000000037e+04
-4.515473909999999887e+04
-4.515962879999999859e+04
-4.515525220000000263e+04
-4.515993650000000343e+04
-4.516350910000000295e+04
-4.516502749999999651e+04
-4.516220500000000175e+04
-4.514678480000000127e+04
-4.516295629999999801e+04
-4.516023999999999796e+04
-4.515330999999999767e+04
-4.516358750000000146e+04
-4.515932979999999952e+04
-4.515997219999999652e+04
-4.516306250000000000e+04
-4.516070449999999983e+04
-4.515250699999999779e+04
-4.516132860000000073e+04
-4.514955939999999828e+04
-4.516740290000000095e+04
-4.516376509999999689e+04
-4.516372050000000309e+04
-4.515919299999999930e+04
-4.515640000000000146e+04
-4.514696889999999985e+04
-4.516755159999999887e+04
-4.516247660000000178e+04
-4.516864860000000044e+04
-4.516131670000000304e+04
-4.516058640000000014e+04
-4.516340619999999763e+04
-4.516061520000000019e+04
-4.516427109999999811e+04
-4.516383460000000196e+04
-4.516627290000000357e+04
-4.515784429999999702e+04
-4.515723329999999987e+04
-4.514827180000000226e+04
-4.515820610000000306e+04
-4.516456620000000112e+04
-4.516285319999999774e+04
-4.515388229999999749e+04
-4.514938629999999830e+04
-4.515809060000000318e+04
-4.516450050000000192e+04
-4.516635390000000189e+04
-4.516173040000000037e+04
-4.515666429999999673e+04
-4.516004430000000139e+04
-4.515061860000000161e+04
-4.516000160000000324e+04
-4.515988519999999698e+04
-4.516019729999999981e+04
-4.516285599999999977e+04
-4.516919509999999718e+04
-4.514641090000000258e+04
-4.516567250000000058e+04
-4.514989680000000226e+04
-4.515469359999999870e+04
-4.515328579999999783e+04
-4.515748550000000250e+04
-4.515953429999999935e+04
-4.516597480000000360e+04
-4.516303259999999864e+04
-4.516459419999999955e+04
-4.516468800000000192e+04
-4.515085669999999664e+04
-4.515884990000000107e+04
-4.516119520000000193e+04
-4.516407200000000012e+04
-4.515081739999999991e+04
-4.514776260000000184e+04
-4.515298210000000108e+04
-4.515990520000000106e+04
-4.516257489999999962e+04
-4.515647090000000026e+04
-4.516392100000000210e+04
-4.515769099999999889e+04
-4.515821360000000277e+04
-4.516095500000000175e+04
-4.515904239999999845e+04
-4.515781680000000051e+04
-4.515421609999999782e+04
-4.516271259999999893e+04
-4.516132190000000264e+04
-4.516425430000000051e+04
-4.516157970000000205e+04
-4.515411789999999746e+04
-4.516539190000000235e+04
-4.515995449999999983e+04
-4.515554250000000320e+04
-4.514733189999999740e+04
-4.516296579999999813e+04
-4.515995650000000023e+04
-4.516848350000000210e+04
