-1.485003528186291888e+01 -1.589750077262664929e+00 1.855184111706879857e-01 -1.589750077262664929e+00 -1.379657611935367356e+02 -7.395049282203886243e+00 1.855184111706879857e-01 -7.395049282203886243e+00 -7.110207167821815233e+01
-4.237071962708649409e+01 6.357021243583557357e+00 1.316912493279492757e+01 6.357021243583557357e+00 -4.495705774975387925e+01 -2.193440855945238077e+00 1.316912493279492757e+01 -2.190614256904071411e+00 -8.569682973008728766e+01
2.437299241828041918e+00 -1.920823926297813955e+00 9.575104164324450551e+00 -1.920823926297813955e+00 -5.276172549214417984e+01 -3.684964329906681990e-01 9.572202617607986852e+00 -3.684964329906681990e-01 -1.026857382955885640e+02
3.817533175541982349e+00 6.000243116187514936e+00 2.774781058148570789e+00 6.000243116187514936e+00 -3.241368446270368509e+01 6.957572037523273245e+00 2.774781058148570789e+00 6.960517664973537855e+00 -7.173486529627615482e+01
-2.811167528128236270e+01 -1.877599486322208966e+00 1.613107917815520320e+00 -1.877599486322208966e+00 -3.611908485530354795e+01 6.870967779668270659e+00 1.613107917815520320e+00 6.870967779668270659e+00 -5.001215845378676761e+01
-1.383144969362627208e+01 1.060902827197749199e+00 7.891528516749034772e+00 1.060902827197749199e+00 -3.973279652555849140e+01 -7.522765501947676903e+00 7.891528516749034772e+00 -7.522765501947676903e+00 -1.757836558786559635e+02
-1.400854420740214756e+01 -8.495107598344808775e-01 -8.545407577545534039e+00 -8.495107598344808775e-01 -6.260950188845902886e+01 -1.179813956585913992e+01 -8.545407577545534039e+00 -1.179813956585913992e+01 -1.547395026811662717e+02
-7.707003102552853591e+00 -1.169023778041683309e-01 5.973426378042260509e+00 -1.169023778041683309e-01 -4.716868380522820559e+01 4.490762074184515562e+00 5.973426378042260509e+00 4.490762074184515562e+00 -1.134922499052955089e+02
-8.101719661257760663e+00 -5.438179617911766961e+00 -5.725898916711708031e-01 -5.438179617911766961e+00 -5.185214531442114350e+01 1.880145912950113296e-01 -5.754385975998831393e-01 1.880145912950113296e-01 -9.149473701838141437e+01
1.401825496829045781e+00 1.513399362903194323e+00 4.671798033309860543e+00 1.513399362903194323e+00 -5.992947042362214916e+01 5.384154255167886483e+00 4.671798033309860543e+00 5.384154255167886483e+00 -1.059493988766671038e+02
1.039042792000152815e+01 1.083524316575351504e-01 6.093398590846121010e+00 1.083524316575351504e-01 -4.449007871454001872e+01 2.088920827166058913e+01 6.093398590846121010e+00 2.088920827166058913e+01 -1.336897923867155953e+02
-1.009431778377159716e+01 2.968403933534216943e+00 -1.212364779905747758e+00 2.968403933534216943e+00 -5.502449838008676153e+01 -7.239300484329284080e-01 -1.212364779905747758e+00 -7.239300484329284080e-01 -4.770669945677077806e+01
-3.960624486923988030e+01 2.018751484048674216e-01 -7.353233145322500164e+00 2.018751484048674216e-01 -6.391699048057125054e+01 -8.600434404645721287e+00 -7.353233145322500164e+00 -8.600434404645721287e+00 -1.061725009960010198e+02
3.998072319015878229e+00 7.739521469488067851e+00 -6.733442001902014695e+00 7.739521469488067851e+00 -7.694320797755939623e+01 1.676799112643420742e+00 -6.733442001902014695e+00 1.673882940273605957e+00 -4.939412759992045920e+01
-2.523393233940070246e+01 -5.288634284342506042e+00 7.741417103783517106e+00 -5.288634284342506042e+00 -2.244667913549046290e+01 4.888413311473343015e+00 7.741417103783517106e+00 4.888413311473343015e+00 -1.081425655904825334e+02
9.539415628381293644e+00 -4.598367373828256888e+00 -6.502150044521484151e-01 -4.598367373828256888e+00 -4.638493254733636917e+01 2.026796320184174327e+00 -6.502150044521484151e-01 2.026796320184174327e+00 -4.811591032945898405e+01
-3.868509669419756136e+01 1.748853332343629940e+00 -1.780545896850680876e+00 1.748853332343629940e+00 -7.890007991141730770e+01 -8.314976469759004729e+00 -1.780545896850680876e+00 -8.314976469759004729e+00 -4.950666690224150557e+01
-3.698103823464738316e+00 7.091590934758016829e+00 -4.256093314919001891e+00 7.091590934758016829e+00 -7.625097213832142984e+01 7.507236168188232917e+00 -4.256093314919001891e+00 7.507236168188232917e+00 -1.551125379688039061e+02
-3.416109833764720349e+01 7.165211059231991975e+00 -5.918599103785673776e+00 7.168018743816331195e+00 -1.347407832024072434e+02 -1.642495481838054605e+00 -5.918599103785673776e+00 -1.645303166422393382e+00 -7.456929487544768165e+01
-2.758852197114129368e+01 1.322462401690736478e+01 -4.260262589456904614e+00 1.322462401690736478e+01 -1.197905553852998537e+02 5.600252282491126721e+00 -4.257435606982148180e+00 5.600252282491126721e+00 -6.827445374782594456e+01
-4.102880745405452778e+00 -4.868906570573090065e+00 3.020579106058752572e+00 -4.868906570573090065e+00 -8.463714884210159539e+01 -9.015311510590340305e+00 3.020579106058752572e+00 -9.015311510590340305e+00 -4.216043651396126535e+01
-5.610392681988795260e+00 -1.300657894445330953e+01 4.598344919742258341e+00 -1.300657894445330953e+01 -1.189450320570566255e+01 1.412159668250981603e+00 4.598344919742258341e+00 1.412159668250981603e+00 -3.929040076977470619e+01
-4.280303272798203551e+00 -3.927672795534855044e-01 -5.622019235068504983e+00 -3.927672795534855044e-01 1.682878781736466989e+00 4.377778364074250916e+00 -5.619152320619208218e+00 4.377778364074250916e+00 -1.008265142672739501e+02
6.426513265650625861e+00 -4.307947368158822066e-01 4.184020115102198289e+00 -4.307947368158822066e-01 -5.099016333503602993e+01 1.628758183029910711e+00 4.184020115102198289e+00 1.631708831912211277e+00 -8.263292194882725994e+01
-4.319182229405370776e+00 5.789913190427657064e+00 -2.464782322029444472e+00 5.789913190427657064e+00 -7.985545933424168652e+01 4.310462480624606130e+00 -2.464782322029444472e+00 4.310462480624606130e+00 -3.057434580828741488e+01
-2.344143894729037214e+01 -1.005040987752279014e+00 -6.252953872663327139e-01 -1.005040987752279014e+00 -2.403247157361060360e+01 -2.369840965438612668e-01 -6.252953872663327139e-01 -2.369840965438612668e-01 -1.031052133770526922e+02
-1.491633328096495248e+01 2.680098522275387585e-01 3.193063615786160714e+00 2.680098522275387585e-01 -7.889864230414575275e+01 1.740623126294982947e+00 3.193063615786160714e+00 1.740623126294982947e+00 -7.165661264126613617e+01
-4.945426225028388689e-01 6.829398120277299089e-01 -6.576239396853226005e+00 6.829398120277299089e-01 -4.614848031533931305e+01 -2.855394903736629519e+00 -6.576239396853226005e+00 -2.855394903736629519e+00 -4.410260458534245487e+01
1.216744906539726223e+01 5.933966751123548988e+00 1.887541147971083788e+01 5.933966751123548988e+00 -6.800782583883875532e+01 -5.073971569801295267e+00 1.887541147971083788e+01 -5.073971569801295267e+00 -9.000294397631169829e+01
-5.234010823371267662e+00 -4.395751277440712812e+00 1.585975377840735501e+00 -4.395751277440712812e+00 -4.908053452897922853e+01 -1.285136586095623756e-01 1.585975377840735501e+00 -1.285136586095623756e-01 -5.502721200463988538e+01
-1.382885462000444221e+01 1.762361739856680987e-01 -8.527556805758134198e-03 1.762361739856680987e-01 -6.469004592848121149e+01 -6.736769876548925895e-01 -8.527556805758134198e-03 -6.765195065901453697e-01 -1.540559987338912151e+02
2.734580141745801551e+00 -2.599797987990531745e+00 2.740570459690480298e+00 -2.599797987990531745e+00 1.263957086327194013e+01 -8.266638763656530386e+00 2.740570459690480298e+00 -8.266638763656530386e+00 -4.109657625946784520e+01
-1.372673688528245250e+01 2.206290618966094019e+00 -2.037471547857870324e-01 2.206290618966094019e+00 -2.027866324846540635e+01 5.102410890564067714e+00 -2.037471547857870324e-01 5.102410890564067714e+00 -6.195368842307824764e+01
-1.794536164525537814e+01 1.962494743482126269e+00 -3.999439211679052697e+00 1.962494743482126269e+00 -2.650410199846877646e-01 -2.966077032637629340e+00 -3.999439211679052697e+00 -2.966077032637629340e+00 -1.079252989355625800e+02
-8.661605950944606391e+00 -4.774574805559590018e+00 6.151292694279226758e-01 -4.774574805559590018e+00 -9.973881725724174530e+00 1.540459441867354862e+01 6.151292694279226758e-01 1.540166523167627233e+01 -6.021236791600180283e+01
9.011962595238994567e+00 -1.293931939862423830e+00 -3.019174526345655973e+00 -1.293931939862423830e+00 -1.032108152970074144e+01 5.315448109763477591e-01 -3.016137127425790432e+00 5.315448109763477591e-01 7.924573781927380267e+00
-9.745168351789033068e+00 -5.481478111429702871e+00 2.719248681519491839e+00 -5.481478111429702871e+00 -1.005462974020220912e+01 -1.592866535360047919e+01 2.719248681519491839e+00 -1.592866535360047919e+01 -1.727338970158477878e+02
-2.085173794516806112e+01 -2.784441878691219507e-01 -3.800619636481623598e+00 -2.784441878691219507e-01 -3.697566581383669870e+01 7.291218940078039168e-01 -3.800619636481623598e+00 7.291218940078039168e-01 -8.138894905828055926e+01
-3.195874389921800685e+01 8.984832691659340398e+00 -3.346363383302225269e+00 8.984832691659340398e+00 -8.340038816140258859e+01 7.872159912506481172e-01 -3.346363383302225269e+00 7.872159912506481172e-01 -7.655745056961251294e+01
-2.277123140676969193e+00 -6.710277270581159748e+00 6.193420526588331754e+00 -6.710277270581159748e+00 -2.613523044338586132e+01 2.504540108033812995e+00 6.193420526588331754e+00 2.504540108033812995e+00 -3.579897482249746332e+01
-1.141028770047125818e+01 3.791169233481647804e+00 -9.874015391679813902e+00 3.791169233481647804e+00 -6.332384312222853140e+01 1.395093693305821070e+01 -9.874015391679813902e+00 1.395376616382946722e+01 -2.001935401432297965e+02
9.036649395437352794e+00 6.313685504759209977e+00 3.360316977177532749e+00 6.313685504759209977e+00 -2.103564412249158622e+01 3.393231925306608776e+00 3.360316977177532749e+00 3.393231925306608776e+00 -2.988378063318968358e+01
-7.432704589790853689e+00 -2.888356705877274777e+00 1.078319836860849312e+00 -2.888356705877274777e+00 -5.129425267924617060e+01 5.421223355646577202e-01 1.078319836860849312e+00 5.421223355646577202e-01 -1.191187929675130519e+01
-2.558404112882250914e+01 -1.231583466689589024e+01 -2.478427490332192562e+00 -1.231583466689589024e+01 -1.032715801359285166e+02 -6.437694210919880256e+00 -2.478427490332192562e+00 -6.437694210919880256e+00 -5.797881230519413975e+01
-3.887053910563021475e+01 1.353315221498669230e+00 -9.453136197629476101e+00 1.353315221498669230e+00 -2.435967398697604835e+01 -2.976146609990717895e+00 -9.450269004363589076e+00 -2.976146609990717895e+00 -1.275585612060472585e+02
-4.034849086854827505e+01 -2.033096931370795168e+00 -1.049618642079689135e+00 -2.033096931370795168e+00 -3.671364713268874880e+01 3.795881116562164204e-01 -1.049618642079689135e+00 3.795881116562164204e-01 -8.107944551626530938e+01
-3.136069683518076090e+01 -2.656932486213471112e+00 8.762874611957190751e+00 -2.656932486213471112e+00 -8.101976552101999118e+01 9.982951349873209423e+00 8.762874611957190751e+00 9.982951349873209423e+00 -1.690570566986184531e+02
-2.844022635127445042e+01 -3.346576295822083047e+00 8.786180817336282090e+00 -3.346576295822083047e+00 -6.993210025625501203e+01 1.653435576664639139e+00 8.786180817336282090e+00 1.653435576664639139e+00 -1.153264224519569296e+02
7.303318606302273253e+00 2.453593268993761622e+00 2.068603224444389266e+00 2.453593268993761622e+00 -6.979237434472652524e+01 -1.233691978578362125e+01 2.068603224444389266e+00 -1.233691978578362125e+01 -1.258314103069318293e+02
-3.082384598780638640e+01 -1.420612117631663729e+01 -7.501175677575256273e+00 -1.420325703898270220e+01 -9.145190507253835221e+01 -2.345728476492606074e+00 -7.501175677575256273e+00 -2.345728476492606074e+00 -4.548822913755259378e+01
1.898885998194504321e+00 -3.193844951091674433e-01 -1.855043217502246122e+01 -3.193844951091674433e-01 -1.396000593168069948e+01 -4.523645848909843892e+00 -1.855043217502246122e+01 -4.523645848909843892e+00 -1.126294904525428393e+02
-3.025091513685200351e+00 5.075656902156375772e-01 -2.961283255486662380e+00 5.075656902156375772e-01 -5.636299461691704948e+01 -3.219416663653472677e-01 -2.961283255486662380e+00 -3.219416663653472677e-01 -4.287624913404440008e+01
8.839474351368487248e+00 7.006655165091888904e+00 -5.084780501112193818e-01 7.006655165091888904e+00 -9.062400321360749444e+01 4.886560244289176680e+00 -5.084780501112193818e-01 4.886560244289176680e+00 -1.821328156895554287e+02
-2.771421228391234592e+01 1.606379332140125848e+00 -5.758508609332769979e+00 1.606379332140125848e+00 -4.513147746474655264e+01 -3.018214454505496303e+00 -5.758508609332769979e+00 -3.018214454505496303e+00 -1.539122619617996293e+02
-1.881434214376536929e+01 -3.831315858164645149e+00 1.180428125869046774e+00 -3.831315858164645149e+00 -6.917540842777060561e+01 -2.404360973821719316e+00 1.180428125869046774e+00 -2.404360973821719316e+00 -6.557611775405196397e+01
-1.715190509636756389e+01 1.858928099708722526e+00 -1.905767232929729493e+00 1.858928099708722526e+00 -3.442676291744027139e+01 3.653452391238559915e+00 -1.905767232929729493e+00 3.653452391238559915e+00 -3.821487781668923134e+01
-5.970632739394246435e+00 2.950603388654133852e+00 -5.094129968058753732e+00 2.950603388654133852e+00 -3.164377496910546128e+01 5.079666225957508274e+00 -5.097022716479003179e+00 5.082558974377757721e+00 -6.382849389279751051e+01
-4.295819171967691830e+01 7.432983727012985042e+00 -5.172465829509410362e+00 7.432983727012985042e+00 -7.846669637812284748e+01 4.370705787045088275e-01 -5.169681940473076054e+00 4.370705787045088275e-01 -8.169600766027080851e+01
3.718711709179652214e+00 2.356175738936227670e+00 4.144132328709804192e+00 2.356175738936227670e+00 -4.465131523446191864e+01 -1.570783825957485336e+00 4.144132328709804192e+00 -1.570783825957485336e+00 -2.786653806390864219e+01
-2.204256525286670865e+01 -5.564695099975126347e+00 1.396863647284144694e+00 -5.564695099975126347e+00 -5.301254012931314463e+01 5.860568459074008807e+00 1.396863647284144694e+00 5.860568459074008807e+00 -7.964398738435770042e+01
-2.841402100144728138e+01 4.184024000511800345e+00 1.968952470829082646e+00 4.184024000511800345e+00 -8.764101658948990803e+01 -3.734220203296536034e-01 1.968952470829082646e+00 -3.734220203296536034e-01 -1.210509715901960419e+02
-5.806241636016204133e+00 5.678376454842672949e+00 -3.068764348164720435e+00 5.678376454842672949e+00 -4.107668945199651489e+01 -3.923136240551488574e-01 -3.068764348164720435e+00 -3.923136240551488574e-01 -5.124197135529214364e+01
1.945735879124527301e+01 -5.352751659962532216e+00 4.987583837793399866e+00 -5.352751659962532216e+00 1.313082627216505216e+01 8.012390631427713572e+00 4.987583837793399866e+00 8.012390631427713572e+00 -6.358180397001542872e+01
5.045856492919712721e+00 2.746994538244641682e+00 -2.735354730879198115e-01 2.746994538244641682e+00 -2.386160509915896810e+01 5.255373025497694250e+00 -2.735354730879198115e-01 5.258282977339054476e+00 -6.700164114733355802e+01
-1.021909450264598229e+00 -4.544731201888996708e+00 8.443126512157649033e-02 -4.544731201888996708e+00 -6.141937824154405234e+01 1.113619272724241505e+01 8.443126512157649033e-02 1.113619272724241505e+01 -4.648377858383069849e+01
-3.187049118419766813e+01 -9.613778573872584943e+00 -1.455939688813194355e+00 -9.613778573872584943e+00 -7.307158210298990753e+01 -5.397560300177794979e+00 -1.455939688813194355e+00 -5.397560300177794979e+00 -7.138967142121749987e+01
-5.010932670732823446e+00 -1.780505011475667310e+00 2.998440035612117693e+00 -1.780505011475667310e+00 -1.924337338135591224e+01 1.046844151698234526e+00 2.998440035612117693e+00 1.046844151698234526e+00 -6.715171750935184036e+01
-7.231896126215626275e+00 3.818629148692247177e-02 1.263085026105897235e+00 3.818629148692247177e-02 -2.767918651394388618e+01 -2.878658896706463466e+00 1.266022433143352943e+00 -2.878658896706463466e+00 -3.657659243039681485e+01
-3.232899925376351735e+00 1.339551359214237181e+00 -8.408439267794994620e+00 1.339551359214237181e+00 -4.192331840449924840e+01 5.421993596819530969e-01 -8.408439267794994620e+00 5.421993596819530969e-01 -9.279437597465896204e+01
-1.072873983610775461e+00 -3.912664420014499100e+00 -4.537302642278454812e+00 -3.915556263636091217e+00 -6.904855015276140762e+01 -5.835740428373435762e+00 -4.537302642278454812e+00 -5.835740428373435762e+00 -9.617982701054117456e+01
1.178225221983644211e+01 -1.666701366389002015e+00 -4.806905151852018498e+00 -1.666701366389002015e+00 -5.184652347348487567e+00 3.690964963629624229e+00 -4.806905151852018498e+00 3.688081397251788296e+00 -1.187625648375388323e+02
2.183798818743423187e+00 -1.355953514906047097e+01 1.678527719504748772e+00 -1.355953514906047097e+01 -1.131550344786543150e+02 -1.323410630548302080e+01 1.675673080525999170e+00 -1.323410630548302080e+01 -1.778240259032471329e+02
-1.042080583031791541e+01 -1.938615852806709894e-01 5.956024397007692706e+00 -1.938615852806709894e-01 -6.740418195912560861e+00 1.362996068819486872e+00 5.956024397007692706e+00 1.362996068819486872e+00 -1.282379474202001859e+02
-5.087960129049343472e+00 6.486003227571910834e+00 -3.535215540116492416e+00 6.486003227571910834e+00 -1.061194927366248777e+02 -3.220082874465913569e+00 -3.535215540116492416e+00 -3.220082874465913569e+00 -6.653023540366717725e+01
3.799076511721318550e+00 3.962102017205145099e+00 5.382752850707062997e+00 3.962102017205145099e+00 -1.365629725401126748e+01 -7.580686004997941652e+00 5.382752850707062997e+00 -7.580686004997941652e+00 -7.041828485979077357e+01
-1.053734428958742164e+01 8.350724345139125759e+00 1.620034828634218327e+00 8.350724345139125759e+00 -4.372101024342189390e+01 1.002485524010735141e+01 1.620034828634218327e+00 1.002485524010735141e+01 -1.341667859924961022e+02
4.562347328137841274e+00 3.227939992112685452e+00 4.334662275122749264e+00 3.227939992112685452e+00 -7.756855084617930629e+01 2.141392334053326518e+00 4.331780185844077202e+00 2.141392334053326518e+00 -1.204886243841633586e+02
3.486440675491243812e+00 2.864918993103161338e+00 -6.321763398004495826e+00 2.864918993103161338e+00 -1.088254869590942597e+01 3.826797787275193929e+00 -6.321763398004495826e+00 3.823838160216202819e+00 -7.181535058641343028e+01
1.494338607014637832e+00 -4.176039285494394626e+00 3.417285961777660197e-01 -4.176039285494394626e+00 -4.022840618224871179e+01 1.274242223035737809e-01 3.417285961777660197e-01 1.274242223035737809e-01 -1.437953388645306632e+02
-1.520985876013444837e+01 -5.441336818738442993e+00 -3.570349753350094968e+00 -5.441336818738442993e+00 -7.311761181249981689e+01 -5.694553113302279534e+00 -3.573163267734138060e+00 -5.694553113302279534e+00 -1.829234511929155076e+02
-6.435847955492473460e+00 1.356267869946284454e+00 3.823247742859104736e+00 1.356267869946284454e+00 -4.873998429470120186e+01 4.154462633203880984e+00 3.823247742859104736e+00 4.154462633203880984e+00 -8.283798619554021059e+01
-9.166945290055261708e+00 5.789040284215510868e-01 -4.142058323356198279e+00 5.789040284215510868e-01 -5.593660174623236969e+01 4.061011759377180397e+00 -4.139163803214090720e+00 4.061011759377180397e+00 -6.574034146755134600e+01
-2.819962580421351461e+01 3.653954589085175009e+00 3.870763603469184577e+00 3.651063802226721666e+00 -3.481085534949658467e+01 4.070227896702473203e+00 3.870763603469184577e+00 4.070227896702473203e+00 -4.970129845739035801e+01
-1.315605872873164550e+01 5.226616834724381322e-01 7.504959753286556179e+00 5.226616834724381322e-01 -3.029705183973933558e+01 -1.876961846724225058e+00 7.504959753286556179e+00 -1.876961846724225058e+00 -1.519155166066381071e+02
-4.513662111248725045e-02 1.269843607297974630e+00 2.094339219619408166e+00 1.269843607297974630e+00 -1.073649760862363323e+01 1.658018548865364705e+00 2.094339219619408166e+00 1.655009440791199271e+00 -2.891752859273349685e+01
-2.177886443416886308e+01 2.038214786381581600e+00 -1.772867797024323178e+00 2.038214786381581600e+00 -3.117972919996888947e+01 -7.700894493324403456e+00 -1.772867797024323178e+00 -7.700894493324403456e+00 -4.137371903285875163e+01
1.454488415114893307e+01 1.545690050264605597e+00 6.911188845435995987e+00 1.545690050264605597e+00 -9.457431899502154238e+01 -5.643841447901031039e+00 6.911188845435995987e+00 -5.643841447901031039e+00 -5.646210321541284571e+01
-2.853442996654835540e+01 -2.364587676724226650e+00 3.225228044355470836e+00 -2.364587676724226650e+00 -3.345485873502597229e+01 3.772908278302625984e+00 3.225228044355470836e+00 3.772908278302625984e+00 -5.074590612107188292e+01
-1.663120663893312212e+01 1.540973753522365097e+00 -1.198566558014918471e+01 1.540973753522365097e+00 -1.124147421881508109e+02 -1.694222886441470166e+01 -1.198566558014918471e+01 -1.694222886441470166e+01 -1.542076468685436055e+02
-9.308845277567558085e+00 6.642097178327009743e+00 1.048046575395520996e+01 6.642097178327009743e+00 -8.008113390473508275e+01 -1.035805764448187460e+01 1.048046575395520996e+01 -1.035805764448187460e+01 -7.190019192160040973e+01
-4.133608119295269034e+01 -3.720701051396400061e+00 1.783781220524645938e+00 -3.720701051396400061e+00 -9.015043119118914206e+01 6.579288444542414904e-01 1.783781220524645938e+00 6.579288444542414904e-01 -5.615933149451441153e+01
-9.478252103904864612e+00 3.393984560273908269e+00 3.599592839949204315e+00 3.393984560273908269e+00 -3.254113012269446159e+01 -1.346589437310040260e+01 3.599592839949204315e+00 -1.346589437310040260e+01 -1.392228683615430214e+02
-1.499175685864647445e+00 -2.561698259341533279e-01 1.080862004197171977e+01 -2.561698259341533279e-01 -6.301777717980172611e+01 -5.955948452969065166e+00 1.080862004197171977e+01 -5.955948452969065166e+00 -4.912638616437239847e+01
-1.915763780234270541e+01 -4.589342788403702467e-02 7.761725990887762272e+00 -4.589342788403702467e-02 -6.183565739525438687e+01 -5.748151842475637707e+00 7.761725990887762272e+00 -5.748151842475637707e+00 -7.466860716732823278e+01
-6.565896434750131405e+00 1.957313300332017558e+00 -1.963244552757266170e+00 1.957313300332017558e+00 -2.634662327295400530e+01 1.696338193621081958e+00 -1.960278926544641864e+00 1.696338193621081958e+00 -8.039812662424393963e+00
-2.604121105865691987e+01 -2.549726931330638380e-02 1.286195585360121907e+00 -2.549726931330638380e-02 -5.124951131974582808e+01 -3.722601319742732340e+00 1.286195585360121907e+00 -3.722601319742732340e+00 -1.373197934316970930e+02
-2.773608273626685516e+01 -1.713237598918914806e+00 -3.013231957897588575e+00 -1.713237598918914806e+00 -3.407821857146083033e+01 -2.324493224663854440e-01 -3.016101702619396363e+00 -2.353190671881926488e-01 -3.396055903786673014e+01
-7.945037038387576800e-01 -5.520329438524108845e+00 1.327409706672828271e+01 -5.520329438524108845e+00 -1.920639138872433804e+01 -3.719454376489591318e+00 1.327409706672828271e+01 -3.719454376489591318e+00 -1.169980269060333455e+02
-1.407472616027397194e+01 -8.639066917176164040e+00 -4.472947973735068139e+00 -8.639066917176164040e+00 -9.717753930099560478e+01 2.358924104461917803e+00 -4.472947973735068139e+00 2.358924104461917803e+00 -1.057743820396909484e+02
-1.172755661869767074e+01 -6.791795146125459981e-01 6.645420250734825451e+00 -6.791795146125459981e-01 -5.685200936972260166e+01 -2.400548284406412769e+00 6.645420250734825451e+00 -2.400548284406412769e+00 -4.190713255033877971e+01
8.942429092137258451e+00 5.900668076700762654e+00 4.896422550611994495e+00 5.900668076700762654e+00 -5.761350778283823360e+01 1.039074850693001872e+00 4.896422550611994495e+00 1.039074850693001872e+00 -4.572219587420909903e+01
-8.563111485622716401e+00 9.553166971790048867e-02 -1.001635082496774798e+00 9.553166971790048867e-02 -6.137765034420986865e+01 2.110381431040892597e+00 -1.001635082496774798e+00 2.110381431040892597e+00 -8.220355434271218087e+01
-7.533033664678782770e+00 -2.248409284648400508e+00 -2.271410914158869532e-01 -2.248409284648400508e+00 -5.683702652037030134e+01 2.012642582166087116e-02 -2.242658877270782836e-01 2.300162951046956505e-02 -4.933562009626841416e+01
-4.611101929053351256e+00 3.612852046363387526e+00 7.936666945223987746e+00 3.612852046363387526e+00 -5.755607027114170648e+01 -2.060341327644983789e+00 7.936666945223987746e+00 -2.060341327644983789e+00 -7.889075962444582046e+01
-1.880798166021327944e+01 -2.954281970491135501e-01 -2.511139674917465481e+00 -2.954281970491135501e-01 -7.039144925843302758e+01 -5.834706891719992683e+00 -2.511139674917465481e+00 -5.834706891719992683e+00 -6.980059286433480281e+01
7.725763138063777902e+00 -7.926697045536977626e+00 1.450218636545707040e+00 -7.926697045536977626e+00 -5.786605326666615667e+01 1.604559174170049340e+00 1.450218636545707040e+00 1.604559174170049340e+00 -9.576102338186552743e+01
-4.104620457226627650e+01 -1.691570955999911918e+00 -7.331063652189471647e+00 -1.691570955999911918e+00 -5.926589108852719079e+01 1.905578214426742178e+01 -7.331063652189471647e+00 1.905855067283697934e+01 -2.286001725169701047e+02
-1.684154007720665192e+01 1.190815965055015857e+00 2.228527020317244034e+00 1.190815965055015857e+00 -6.105200041792775068e+01 2.018716588378979271e+00 2.228527020317244034e+00 2.018716588378979271e+00 -9.235344864223101524e+01
-1.872356880241692423e+01 -1.119821119206385518e+01 -4.591066977138479110e+00 -1.119821119206385518e+01 -5.141424695515948429e+01 -5.189901800243498231e-01 -4.588215382742740545e+00 -5.189901800243498231e-01 -9.409691187056864692e+01
-1.123858196844513380e+01 2.086274920469218142e+00 -2.252464672313138738e+00 2.086274920469218142e+00 -5.344781126266091142e+00 -1.311711969910945186e+00 -2.252464672313138738e+00 -1.308744295770875032e+00 -1.906433867580975416e+01
1.161971344983415921e+00 2.270857704663021004e-01 6.688708148280171351e+00 2.270857704663021004e-01 -1.286721060447371379e+01 -3.205743279180135019e+00 6.688708148280171351e+00 -3.208692445030346452e+00 -8.701218924464644999e+01
-1.217580025772536345e+01 2.730000057785955669e-01 -4.758821153361623146e+00 2.730000057785955669e-01 -7.127311729811292196e+01 2.097789518088155170e+00 -4.758821153361623146e+00 2.094915833816801687e+00 -7.421289630770769463e+01
-3.353524522163310539e+00 -3.438577680334119258e+00 6.834628781582834378e-01 -3.438577680334119258e+00 -1.617832572920452350e+01 3.049763242981851086e+00 6.834628781582834378e-01 3.049763242981851086e+00 -2.636647903295066797e+01
-2.982543511559466154e+01 2.436956283835173931e+00 3.704397382086991986e+00 2.436956283835173931e+00 -1.051528450233953293e+02 -3.407821760862504323e+00 3.704397382086991986e+00 -3.407821760862504323e+00 -1.259383194580813381e+02
-2.747348179182222339e+01 -6.369031617518484012e+00 -8.298870703038661034e-01 -6.369031617518484012e+00 -5.849719233863929446e+01 -2.742847096767014659e+00 -8.298870703038661034e-01 -2.742847096767014659e+00 -1.279573335348181189e+02
1.184951862010412427e+01 -7.027040111922213228e+00 2.955050660332745771e+00 -7.027040111922213228e+00 -5.048504704522839148e+01 -2.099024080156989935e+00 2.955050660332745771e+00 -2.099024080156989935e+00 -2.788535900901297282e+01
-9.781256674910445703e-01 1.400233470426167859e+00 3.071198152390035574e+00 1.400233470426167859e+00 -2.509067002412295722e+01 -1.085544825617293263e+01 3.071198152390035574e+00 -1.085544825617293263e+01 -7.820638707484199870e+01
1.457558263696900225e+00 -3.529577364050336286e+00 -9.231202336747033055e-01 -3.529577364050336286e+00 -7.563870001372971785e+01 -3.146611075157425219e+00 -9.202622762949055346e-01 -3.146611075157425219e+00 -1.163817404201277839e+02
-2.755140803789252857e+01 9.466074168043381309e-01 -5.132208886288580629e-02 9.466074168043381309e-01 -2.269006573171362362e+01 2.412138176555632896e+00 -5.132208886288580629e-02 2.414989403714681959e+00 -6.301782266930567289e+01
-1.047392915244507350e+01 4.528956776371980020e+00 -5.093643159248739671e+00 4.528956776371980020e+00 -4.264098797804403773e+01 -9.166837829644045144e+00 -5.093643159248739671e+00 -9.166837829644045144e+00 -8.177346766856952343e+01
1.539665037092925992e+01 8.324109287964055470e-01 -2.385063937827998526e+00 8.324109287964055470e-01 -3.462180065196113077e+01 -1.779942517958271297e+00 -2.385063937827998526e+00 -1.779942517958271297e+00 -9.789388667590067428e+01
-5.256218682277790100e-01 5.972975775315670921e-01 2.699785050442683243e+00 5.972975775315670921e-01 -1.162042437087663771e+01 3.903339669168790937e+00 2.699785050442683243e+00 3.903339669168790937e+00 -3.842116667471805158e+01
4.528066639146385519e+00 -2.255269319626457936e+00 -1.524935990731879576e+00 -2.255269319626457936e+00 -6.909245424674269032e+01 2.687626650332048506e+00 -1.524935990731879576e+00 2.687626650332048506e+00 -2.716255716824716160e+01
1.292038783844186334e+01 -1.786095977666433576e+00 9.549851880587462816e+00 -1.786095977666433576e+00 -7.246940389383355807e+01 -1.184296865191404713e+01 9.549851880587462816e+00 -1.184296865191404713e+01 -1.106169570168318046e+02
9.911415462794176179e+00 -2.572627254430371657e+00 3.984823092632870267e+00 -2.572627254430371657e+00 -4.868892413474803504e+01 6.586388786370669379e+00 3.984823092632870267e+00 6.586388786370669379e+00 -1.275519589353515073e+02
-1.830592808761302592e+01 -5.614418018266072785e+00 -3.710128940928331787e+00 -5.614418018266072785e+00 -5.456899276270631560e+01 2.202449553257682879e+00 -3.710128940928331787e+00 2.202449553257682879e+00 -1.691216850442122279e+02
-1.373171646801709223e+01 3.372905287909822469e+00 2.548481611190869245e+00 3.372905287909822469e+00 -3.342531784030703079e+01 -3.737387334459254529e+00 2.548481611190869245e+00 -3.737387334459254529e+00 -7.423573619522278477e+01
-1.086296279236104034e+01 2.890437468142849742e+00 3.144541860946616918e+00 2.890437468142849742e+00 -4.467617233477140104e+01 2.148337139159121278e+00 3.144541860946616918e+00 2.148337139159121278e+00 -8.494883104425025522e+01
-1.594698101508042676e+01 1.287872978676179336e+00 1.194466806596368391e+00 1.287872978676179336e+00 -5.953652798565880033e+01 -6.524279595271633703e+00 1.197297296659392885e+00 -6.524279595271633703e+00 -1.063245287274549327e+02
-2.859051031137940058e+01 -3.754478864592014631e+00 7.553687186990039493e+00 -3.754478864592014631e+00 -9.732850459476618710e+01 9.647584930533911418e+00 7.553687186990039493e+00 9.650380521646788168e+00 -1.656555469845602602e+02