-3.008443460000000050e+04
-3.008313019999999960e+04
-3.008569849999999860e+04
-3.008402939999999944e+04
-3.008363260000000082e+04
-3.008807760000000053e+04
-3.008564319999999861e+04
-3.008177370000000155e+04
-3.008390460000000166e+04
-3.008616330000000016e+04
-3.008363729999999850e+04
-3.008397230000000127e+04
-3.008630879999999888e+04
-3.008414640000000145e+04
-3.008419710000000123e+04
-3.008616140000000087e+04
-3.008464380000000165e+04
-3.008412199999999939e+04
-3.008428510000000097e+04
-3.008606999999999971e+04
-3.008604379999999946e+04
-3.008616149999999834e+04
-3.008643790000000081e+04
-3.008840469999999914e+04
-3.008854799999999886e+04
-3.008240130000000136e+04
-3.008613269999999829e+04
-3.008665599999999904e+04
-3.008515580000000045e+04
-3.008111449999999968e+04
-3.008648500000000058e+04
-3.008615740000000005e+04
-3.008804309999999896e+04
-3.008749079999999958e+04
-3.008534570000000167e+04
-3.008667559999999867e+04
-3.008841040000000066e+04
-3.008966890000000058e+04
-3.008544510000000082e+04
-3.008072000000000116e+04
-3.008445910000000003e+04
-3.008479790000000139e+04
-3.008680199999999968e+04
-3.007813430000000153e+04
-3.009129339999999866e+04
-3.008770980000000054e+04
-3.008764789999999994e+04
-3.008490260000000126e+04
-3.008786030000000028e+04
-3.008703229999999894e+04
-3.008596589999999924e+04
-3.008138049999999930e+04
-3.008596789999999964e+04
-3.008628740000000107e+04
-3.008547309999999925e+04
-3.008741749999999956e+04
-3.008564170000000013e+04
-3.008475370000000112e+04
-3.008955050000000119e+04
-3.008372279999999955e+04
-3.009071299999999974e+04
-3.008280449999999837e+04
-3.008555410000000120e+04
-3.008615880000000107e+04
-3.008507240000000093e+04
-3.008651699999999983e+04
-3.008298289999999906e+04
-3.008389370000000054e+04
-3.008314349999999831e+04
-3.008392459999999846e+04
-3.008634530000000086e+04
-3.008276250000000073e+04
-3.008452999999999884e+04
-3.008615740000000005e+04
-3.008539400000000023e+04
-3.008400340000000142e+04
-3.008638810000000012e+04
-3.008459850000000006e+04
-3.008447569999999905e+04
-3.008653220000000147e+04
-3.008533269999999902e+04
-3.008034700000000157e+04
-3.008515460000000166e+04
-3.008874429999999847e+04
-3.008410819999999876e+04
-3.008586549999999988e+04
-3.008924100000000180e+04
-3.008889240000000063e+04
-3.008452899999999863e+04
-3.008548099999999977e+04
-3.008416860000000088e+04
-3.008367680000000109e+04
-3.008310770000000048e+04
-3.008714819999999963e+04
-3.008479609999999957e+04
-3.008706330000000162e+04
-3.008643969999999899e+04
-3.008351829999999973e+04
-3.008590509999999995e+04
-3.008208239999999932e+04
-3.008638669999999911e+04
-3.008643059999999969e+04
-3.008422379999999976e+04
-3.008382640000000174e+04
-3.008895400000000154e+04
-3.008191449999999895e+04
-3.008570980000000054e+04
-3.008777160000000003e+04
-3.008519979999999850e+04
-3.008658169999999882e+04
-3.008560329999999885e+04
-3.008309059999999954e+04
-3.008672750000000087e+04
-3.008913820000000123e+04
-3.008721099999999933e+04
-3.008482459999999992e+04
-3.008421329999999944e+04
-3.008506309999999939e+04
-3.008661939999999959e+04
-3.008508859999999913e+04
-3.008279170000000158e+04
-3.008762450000000172e+04
-3.008656350000000020e+04
-3.008710029999999824e+04
-3.008662139999999999e+04
-3.008745969999999943e+04
-3.008353900000000067e+04
-3.008646039999999994e+04
-3.008851459999999861e+04
-3.008591530000000057e+04
-3.008937679999999818e+04
-3.008435979999999836e+04
-3.008749060000000100e+04
-3.008408640000000014e+04
-3.008984119999999893e+04
-3.008270609999999942e+04
-3.008633810000000085e+04
-3.008503080000000045e+04
-3.008480819999999949e+04
-3.008360410000000047e+04
-3.008624350000000049e+04
-3.008718249999999898e+04
-3.008595780000000013e+04
-3.008848280000000159e+04
-3.008782920000000013e+04
-3.008728440000000046e+04
-3.008328659999999945e+04
-3.008670639999999912e+04
-3.009042090000000098e+04
-3.008592620000000170e+04
-3.008673530000000028e+04
-3.008901199999999881e+04
-3.008503649999999834e+04
-3.008582670000000144e+04
-3.008690520000000106e+04
-3.008593850000000020e+04
-3.008654499999999825e+04
-3.008665869999999995e+04
-3.008058829999999944e+04
-3.008540339999999924e+04
-3.008739540000000125e+04
-3.008332670000000144e+04
-3.008539679999999862e+04
-3.008804449999999997e+04
-3.008084070000000065e+04
-3.008242439999999988e+04
-3.008586750000000029e+04
-3.008640639999999985e+04
-3.008773719999999958e+04
-3.008402059999999983e+04
-3.008600800000000163e+04
-3.008426090000000113e+04
-3.008801050000000032e+04
-3.008484189999999944e+04
-3.008749429999999847e+04
-3.008598630000000048e+04
-3.008474559999999838e+04
-3.008578580000000147e+04
-3.009055069999999978e+04
-3.008304469999999856e+04
-3.008208320000000094e+04
-3.008665569999999934e+04
-3.008636690000000090e+04
-3.008510129999999845e+04
-3.008591519999999946e+04
-3.009112099999999919e+04
-3.008376080000000002e+04
-3.008625119999999879e+04
-3.008817410000000018e+04
-3.008784210000000166e+04
-3.008944649999999820e+04
-3.008452560000000085e+04
-3.008832609999999841e+04
-3.008363290000000052e+04
-3.008618319999999949e+04
-3.008384839999999895e+04
-3.008933710000000065e+04
-3.008502200000000084e+04
-3.008310889999999927e+04
-3.008584140000000116e+04
-3.008403099999999904e+04
-3.008456769999999960e+04
-3.008081989999999860e+04
-3.008324199999999837e+04
-3.008264240000000063e+04
-3.008402140000000145e+04
-3.008580570000000080e+04
-3.008796529999999984e+04
-3.008194310000000041e+04
-3.008184779999999955e+04
-3.008697969999999987e+04
-3.008560599999999977e+04
-3.008561260000000038e+04
-3.008331019999999990e+04
-3.008360120000000097e+04
-3.008576469999999972e+04
-3.009159330000000045e+04
-3.008478180000000066e+04
-3.008425779999999941e+04
-3.008390330000000176e+04
-3.008682860000000073e+04
-3.008442989999999918e+04
-3.008795950000000084e+04
-3.007640620000000126e+04
-3.008683039999999892e+04
-3.008675890000000072e+04
-3.008701510000000053e+04
-3.008722130000000107e+04
-3.009080470000000059e+04
-3.008763390000000072e+04
-3.008470260000000053e+04
-3.008543149999999878e+04
-3.008131789999999819e+04
-3.008809040000000095e+04
-3.008462099999999919e+04
-3.008261869999999908e+04
-3.008585900000000038e+04
-3.008620739999999932e+04
-3.008539300000000003e+04
-3.008496640000000116e+04
-3.008723969999999827e+04
-3.008599880000000121e+04
-3.008708740000000034e+04
-3.008624829999999929e+04
-3.008544610000000102e+04
-3.008755010000000038e+04
-3.008429400000000169e+04
-3.008233179999999993e+04
-3.008549650000000111e+04
-3.008188750000000073e+04
-3.008676610000000073e+04
-3.008548270000000048e+04
-3.008671710000000166e+04
-3.008669050000000061e+04
-3.008662749999999869e+04
-3.008600619999999981e+04
-3.008632589999999982e+04
-3.008336669999999867e+04
-3.008260480000000098e+04
-3.008464359999999942e+04
-3.008866790000000037e+04
-3.008515109999999913e+04
-3.008760789999999906e+04
-3.008556840000000011e+04
-3.008576819999999861e+04
-3.008422130000000107e+04
-3.008411980000000040e+04
-3.008039380000000165e+04
-3.008581520000000091e+04
-3.008324810000000070e+04
-3.008606550000000061e+04
-3.008594470000000001e+04
-3.008803369999999995e+04
-3.008679490000000078e+04
-3.008593040000000110e+04
-3.008571310000000085e+04
-3.008653259999999864e+04
-3.008476050000000032e+04
-3.008852630000000136e+04
-3.008347009999999864e+04
-3.008447070000000167e+04
-3.008667350000000079e+04
-3.008752490000000034e+04
-3.008281450000000041e+04
-3.008607819999999992e+04
-3.008670089999999982e+04
-3.008313330000000133e+04
-3.008792770000000019e+04
-3.008388699999999881e+04
-3.008944399999999951e+04
-3.008223760000000038e+04
-3.008076080000000002e+04
-3.008629820000000109e+04
-3.008147320000000036e+04
-3.008484960000000137e+04
-3.008352379999999903e+04
-3.008434100000000035e+04
-3.008982779999999912e+04
-3.008636010000000169e+04
-3.008578429999999935e+04
-3.008632730000000083e+04
-3.008406950000000143e+04
-3.008230990000000020e+04
-3.008555250000000160e+04
-3.008986469999999827e+04
-3.008469519999999829e+04
-3.008704139999999825e+04
-3.008741999999999825e+04
-3.008956339999999909e+04
-3.008816670000000158e+04
-3.008816839999999866e+04
-3.008707170000000042e+04
-3.008380830000000060e+04
-3.008545439999999871e+04
-3.008583109999999942e+04
-3.008488769999999931e+04
-3.008547839999999997e+04
-3.008795520000000033e+04
-3.008755860000000030e+04
-3.008514600000000064e+04
-3.008584219999999914e+04
-3.008755340000000069e+04
-3.008399820000000182e+04
-3.008561609999999928e+04
-3.008587069999999949e+04
-3.008774399999999878e+04
-3.008962810000000172e+04
-3.008414289999999892e+04
-3.008630770000000120e+04
-3.008471069999999963e+04
-3.008781989999999860e+04
-3.008475649999999951e+04
-3.008479669999999896e+04
-3.008308650000000125e+04
-3.008804850000000079e+04
-3.008561000000000058e+04
-3.008356989999999860e+04
-3.008725960000000123e+04
-3.008758789999999863e+04
-3.008525969999999870e+04
-3.008374689999999828e+04
-3.008311600000000180e+04
-3.008601550000000134e+04
-3.008297119999999995e+04
-3.008488149999999951e+04
-3.008087110000000030e+04
-3.008132050000000163e+04
-3.009006889999999839e+04
-3.008801640000000043e+04
-3.008494009999999980e+04
-3.008735229999999865e+04
-3.008907549999999901e+04
-3.008164770000000135e+04
-3.008281650000000081e+04
-3.008955329999999958e+04
-3.008536600000000180e+04
-3.008426610000000073e+04
-3.008279279999999926e+04
-3.008318980000000010e+04
-3.008518820000000051e+04
-3.008415769999999975e+04
-3.008751959999999963e+04
-3.008652040000000125e+04
-3.008646350000000166e+04
-3.008591560000000027e+04
-3.008392750000000160e+04
-3.008570769999999902e+04
-3.008696909999999843e+04
-3.008528729999999996e+04
-3.008399729999999909e+04
-3.008622869999999966e+04
-3.008417030000000159e+04
-3.008403919999999925e+04
-3.008208899999999994e+04
-3.008726979999999821e+04
-3.008407040000000052e+04
-3.009008299999999872e+04
-3.008610570000000007e+04
-3.008143179999999847e+04
-3.008246250000000146e+04
-3.009037350000000151e+04
-3.008441319999999905e+04
-3.008636500000000160e+04
-3.008526380000000063e+04
-3.008512600000000020e+04
-3.008784570000000167e+04
-3.008750430000000051e+04
-3.008234600000000137e+04
-3.008919559999999910e+04
-3.008365550000000076e+04
-3.008375519999999960e+04
-3.008283469999999943e+04
-3.008216790000000037e+04
-3.008614839999999822e+04
-3.008885599999999977e+04
-3.008777100000000064e+04
-3.008264199999999983e+04
-3.008416939999999886e+04
-3.008095140000000174e+04
-3.008366219999999885e+04
-3.008589719999999943e+04
-3.008425790000000052e+04
-3.008361070000000109e+04
-3.008759749999999985e+04
-3.008444120000000112e+04
-3.008658160000000134e+04
-3.008364830000000075e+04
-3.008635520000000179e+04
-3.008148519999999917e+04
-3.008570850000000064e+04
-3.008519129999999859e+04
-3.008543260000000009e+04
-3.008759630000000107e+04
-3.008339440000000104e+04
-3.008355340000000069e+04
-3.008349799999999959e+04
-3.008777569999999832e+04
-3.008637090000000171e+04
-3.008646730000000025e+04
-3.008633620000000155e+04
-3.008629360000000088e+04
-3.008742160000000149e+04
-3.008788109999999870e+04
-3.008564930000000095e+04
-3.008839410000000134e+04
-3.008658710000000065e+04
-3.008737719999999899e+04
-3.008824469999999928e+04
-3.008751680000000124e+04
-3.008833360000000175e+04
-3.008720379999999932e+04
-3.008977500000000146e+04
-3.008676610000000073e+04
-3.008825310000000172e+04
-3.008292580000000089e+04
-3.008702319999999963e+04
-3.008452809999999954e+04
-3.008502449999999953e+04
-3.008420060000000012e+04
-3.008310800000000017e+04
-3.008259560000000056e+04
-3.008695790000000125e+04
-3.008153819999999905e+04
-3.008485610000000088e+04
-3.008570339999999851e+04
-3.008097669999999925e+04
-3.008783680000000095e+04
-3.008276410000000033e+04
-3.008339470000000074e+04
-3.008457159999999931e+04
-3.008609609999999884e+04
-3.008460369999999966e+04
-3.008656450000000041e+04
-3.008686010000000169e+04
-3.008938000000000102e+04
-3.008553269999999975e+04
-3.008453259999999864e+04
-3.008532730000000083e+04
-3.008941100000000006e+04
-3.008603190000000177e+04
-3.008520469999999841e+04
-3.008232119999999850e+04
-3.008494559999999910e+04
-3.008157679999999891e+04
-3.008841240000000107e+04
-3.008994489999999860e+04
-3.008119840000000113e+04
-3.008451880000000165e+04
-3.008187110000000030e+04
-3.008362139999999999e+04
-3.008647769999999946e+04
-3.008730879999999888e+04
-3.008672750000000087e+04
-3.008370409999999902e+04
-3.008180089999999836e+04
-3.008533299999999872e+04
-3.008194380000000092e+04
-3.008738669999999911e+04
-3.008560659999999916e+04
-3.008947119999999995e+04
-3.008656610000000001e+04
-3.008595319999999992e+04
-3.008518000000000029e+04
-3.008836059999999998e+04
-3.008699469999999928e+04
-3.008249850000000151e+04
-3.008632099999999991e+04
-3.008252609999999913e+04
-3.008545880000000034e+04
-3.008508060000000114e+04
-3.008743809999999939e+04
-3.008448949999999968e+04
-3.008571700000000055e+04
-3.008142459999999846e+04
-3.008726629999999932e+04
-3.008763959999999861e+04
-3.008375999999999840e+04
-3.007749799999999959e+04
-3.008557479999999850e+04
-3.008354690000000119e+04
-3.008778029999999853e+04
-3.008594470000000001e+04
-3.008337870000000112e+04
-3.008403879999999845e+04
-3.008416540000000168e+04
-3.008554260000000068e+04
-3.008608789999999863e+04
-3.008872999999999956e+04
-3.008833160000000134e+04
-3.008522009999999864e+04
-3.008627130000000034e+04
-3.008710810000000129e+04
-3.008552969999999914e+04
-3.008285699999999997e+04
-3.008729550000000017e+04
-3.008640190000000075e+04
-3.008842130000000179e+04
-3.008203970000000118e+04
-3.008446410000000105e+04
-3.008475739999999860e+04
-3.008616820000000007e+04
-3.008083039999999892e+04
-3.008596889999999985e+04
-3.008409430000000066e+04
-3.008518089999999938e+04
-3.008367750000000160e+04
-3.008316300000000047e+04
-3.008430329999999958e+04
-3.008519849999999860e+04
-3.008589089999999851e+04
-3.008401259999999820e+04
-3.008556260000000111e+04
-3.008466540000000168e+04
-3.008507749999999942e+04
-3.008527720000000045e+04
-3.008608799999999974e+04
-3.008217359999999826e+04
-3.008544110000000001e+04
-3.008813910000000033e+04
-3.008778900000000067e+04
-3.008347799999999916e+04
-3.008598020000000179e+04
-3.008100749999999971e+04
-3.008718779999999970e+04
-3.008297940000000017e+04
-3.008002950000000055e+04
-3.008422330000000147e+04
-3.008577360000000044e+04
-3.009036549999999988e+04
-3.008391999999999825e+04
-3.008023479999999836e+04
-3.008695100000000093e+04
-3.008765160000000105e+04
-3.008428859999999986e+04
-3.008292759999999907e+04
-3.008544190000000162e+04
-3.008162529999999970e+04
-3.008628240000000005e+04
-3.008541119999999864e+04
-3.008676039999999921e+04
-3.008622839999999997e+04
-3.008764610000000175e+04
-3.008566010000000097e+04
-3.008753080000000045e+04
-3.008612700000000041e+04
-3.008638499999999840e+04
-3.008645140000000174e+04
-3.008445130000000063e+04
-3.008324539999999979e+04
-3.008531250000000000e+04
-3.008446640000000116e+04
-3.008412770000000091e+04
-3.008692329999999856e+04
-3.008495100000000093e+04
-3.008449250000000029e+04
-3.008811460000000079e+04
-3.008553229999999894e+04
-3.008761119999999937e+04
-3.008684990000000107e+04
-3.008273530000000028e+04
-3.008438479999999981e+04
-3.008102500000000146e+04
-3.008428280000000086e+04
-3.008498660000000018e+04
-3.008788829999999871e+04
-3.008479799999999886e+04
-3.008544239999999991e+04
-3.008636630000000150e+04
-3.008335970000000088e+04
-3.008722430000000168e+04
-3.008454409999999916e+04
-3.008698370000000068e+04
-3.008725839999999880e+04
-3.008407869999999821e+04
-3.008787139999999999e+04
-3.008113639999999941e+04
-3.008550619999999981e+04
-3.008735599999999977e+04
-3.008722639999999956e+04
-3.008570230000000083e+04
-3.008681599999999889e+04
-3.008626099999999860e+04
-3.008284279999999853e+04
-3.008598839999999836e+04
-3.008492510000000038e+04
-3.008434969999999885e+04
-3.008580670000000100e+04
-3.008357019999999829e+04
-3.008361950000000070e+04
-3.008600470000000132e+04
-3.008383659999999873e+04
-3.008328610000000117e+04
-3.008941229999999996e+04
-3.008671860000000015e+04
-3.008736539999999877e+04
-3.008523949999999968e+04
-3.008244729999999981e+04
-3.008687419999999838e+04
-3.008548380000000179e+04
-3.008481429999999818e+04
-3.008459289999999964e+04
-3.008669689999999900e+04
-3.008767290000000139e+04
-3.008373719999999958e+04
-3.008266379999999845e+04
-3.008613130000000092e+04
-3.008398700000000099e+04
-3.008730919999999969e+04
-3.008297300000000178e+04
-3.008663810000000012e+04
-3.008511549999999988e+04
-3.008946140000000014e+04
-3.008712830000000031e+04
-3.008690680000000066e+04
-3.008592770000000019e+04
-3.008791300000000047e+04
-3.008813460000000123e+04
-3.008658239999999932e+04
-3.008371189999999842e+04
-3.008281929999999920e+04
-3.008740539999999964e+04
-3.008359279999999853e+04
-3.008227620000000024e+04
-3.008515599999999904e+04
-3.008591969999999856e+04
-3.008309449999999924e+04
-3.008890789999999834e+04
-3.008092659999999887e+04
-3.008396990000000005e+04
-3.008547079999999914e+04
-3.008581799999999930e+04
-3.008427549999999974e+04
-3.008501329999999871e+04
-3.008729750000000058e+04
-3.008877909999999974e+04
-3.008309999999999854e+04
-3.008433000000000175e+04
-3.008498479999999836e+04
-3.008173679999999877e+04
-3.008379690000000119e+04
-3.008828949999999895e+04
-3.008908789999999863e+04
-3.008427189999999973e+04
-3.008704520000000048e+04
-3.008624520000000120e+04
-3.008706659999999829e+04
-3.008630110000000059e+04
-3.008950649999999951e+04
-3.008658360000000175e+04
-3.008617680000000109e+04
-3.008899840000000040e+04
-3.008210780000000159e+04
-3.008161170000000129e+04
-3.008512150000000111e+04
-3.008532509999999820e+04
-3.008362909999999829e+04
-3.008636560000000100e+04
-3.008660459999999875e+04
-3.008552820000000065e+04
-3.008594570000000022e+04
-3.008237229999999909e+04
-3.008647190000000046e+04
-3.008272929999999906e+04
-3.008817559999999867e+04
-3.008334709999999905e+04
-3.008911999999999898e+04
-3.008237129999999888e+04
-3.008566700000000128e+04
-3.007954699999999866e+04
-3.008615590000000157e+04
-3.008540299999999843e+04
-3.008774060000000100e+04
-3.008766679999999906e+04
-3.008937350000000151e+04
-3.008633789999999863e+04
-3.008412350000000151e+04
-3.008744989999999962e+04
-3.008163699999999881e+04
-3.008870509999999922e+04
-3.008496870000000126e+04
-3.008365720000000147e+04
-3.008357370000000083e+04
-3.008821889999999985e+04
-3.008285329999999885e+04
-3.008806499999999869e+04
-3.008080579999999827e+04
-3.008573150000000169e+04
-3.008573359999999957e+04
-3.008653580000000147e+04
-3.008647360000000117e+04
-3.008316639999999825e+04
-3.008507560000000012e+04
-3.008700230000000010e+04
-3.008608339999999953e+04
-3.008397880000000077e+04
-3.008612900000000081e+04
-3.008267109999999957e+04
-3.008885840000000098e+04
-3.008476510000000053e+04
-3.008386270000000150e+04
-3.008714770000000135e+04
-3.008517329999999856e+04
-3.008843939999999930e+04
-3.008672360000000117e+04
-3.008607029999999941e+04
-3.008513580000000002e+04
-3.008493149999999878e+04
-3.008602189999999973e+04
-3.008549100000000180e+04
-3.008739400000000023e+04
-3.008654000000000087e+04
-3.008444489999999860e+04
-3.008893270000000120e+04
-3.008862210000000050e+04
-3.008739749999999913e+04
-3.008312840000000142e+04
-3.008223640000000159e+04
-3.008830949999999939e+04
-3.008892069999999876e+04
-3.008681330000000162e+04
-3.008589080000000104e+04
-3.008266419999999925e+04
-3.008393939999999930e+04
-3.008663300000000163e+04
-3.008408000000000175e+04
-3.008511630000000150e+04
-3.008696289999999863e+04
-3.008533650000000125e+04
-3.008570130000000063e+04
-3.008030189999999857e+04
-3.008641860000000088e+04
-3.008628210000000036e+04
-3.008427360000000044e+04
-3.008237410000000091e+04
-3.008354490000000078e+04
-3.008549539999999979e+04
-3.008461040000000139e+04
-3.008972430000000168e+04
-3.008583539999999994e+04
-3.008338420000000042e+04
-3.008834899999999834e+04
-3.008665970000000016e+04
-3.008500189999999930e+04
-3.008067870000000039e+04
-3.008484669999999824e+04
-3.008493070000000080e+04
-3.008445149999999921e+04
-3.008337919999999940e+04
-3.008713590000000113e+04
-3.008360719999999856e+04
-3.008378870000000097e+04
-3.008571990000000005e+04
-3.008571459999999934e+04
-3.009004560000000129e+04
-3.008413750000000073e+04
-3.008603580000000147e+04
-3.008482080000000133e+04
-3.007793649999999980e+04
-3.008377460000000065e+04
-3.008737629999999990e+04
-3.008436539999999877e+04
-3.008323380000000179e+04
-3.008173119999999835e+04
-3.008588769999999931e+04
-3.008626290000000154e+04
-3.008542069999999876e+04
-3.008499810000000070e+04
-3.008774460000000181e+04
-3.008654790000000139e+04
-3.008514849999999933e+04
-3.008261569999999847e+04
-3.008798740000000180e+04
-3.008846849999999904e+04
-3.008754320000000007e+04
-3.008654360000000088e+04
-3.008767699999999968e+04
-3.008459969999999885e+04
-3.008587740000000122e+04
-3.008293620000000010e+04
-3.008443590000000040e+04
-3.008435749999999825e+04
-3.008667199999999866e+04
-3.008957389999999941e+04
-3.008539010000000053e+04
-3.008652909999999974e+04
-3.008684779999999955e+04
-3.008397859999999855e+04
-3.008667420000000129e+04
-3.008421270000000004e+04
-3.008687470000000030e+04
-3.008308750000000146e+04
-3.008363070000000153e+04
-3.008380870000000141e+04
-3.008190139999999883e+04
-3.008671270000000004e+04
-3.008918609999999899e+04
-3.008704320000000007e+04
-3.008372560000000158e+04
-3.008858450000000084e+04
-3.008581690000000162e+04
-3.008353029999999853e+04
-3.008770300000000134e+04
-3.008735050000000047e+04
-3.008782389999999941e+04
-3.008347910000000047e+04
-3.008619649999999820e+04
-3.008313130000000092e+04
-3.008513499999999840e+04
-3.008419050000000061e+04
-3.007627110000000175e+04
-3.008386939999999959e+04
-3.008563439999999900e+04
-3.008766089999999895e+04
-3.008521600000000035e+04
-3.008640469999999914e+04
-3.008723319999999876e+04
-3.008038750000000073e+04
-3.008230459999999948e+04
-3.008536409999999887e+04
-3.008152409999999873e+04
-3.008613769999999931e+04
-3.008335480000000098e+04
-3.008824429999999847e+04
-3.008450029999999970e+04
-3.008714619999999923e+04
-3.008794619999999850e+04
-3.008503819999999905e+04
-3.008474929999999949e+04
-3.009042510000000038e+04
-3.008082200000000012e+04
-3.008854490000000078e+04
-3.008574539999999979e+04
-3.008804820000000109e+04
-3.008402850000000035e+04
-3.008710020000000077e+04
-3.008519340000000011e+04
-3.008785310000000027e+04
-3.008259899999999834e+04
-3.008581049999999959e+04
-3.008736240000000180e+04
-3.008165350000000035e+04
-3.008954379999999946e+04
-3.009005610000000161e+04
-3.008650899999999820e+04
-3.008712919999999940e+04
-3.008331279999999970e+04
-3.008635689999999886e+04
-3.008663940000000002e+04
-3.008498419999999896e+04
-3.008660389999999825e+04
-3.008551780000000144e+04
-3.008447750000000087e+04
-3.008792030000000159e+04
-3.008817220000000088e+04
-3.008582600000000093e+04
-3.008853159999999843e+04
-3.008766939999999886e+04
-3.008268549999999959e+04
-3.008663209999999890e+04
-3.008477730000000156e+04
-3.008822859999999855e+04
-3.008276150000000052e+04
-3.009032560000000012e+04
-3.008512860000000001e+04
-3.008353380000000107e+04
-3.008692060000000129e+04
-3.008501580000000104e+04
-3.008586929999999847e+04
-3.008567060000000129e+04
-3.008414170000000013e+04
-3.008448969999999827e+04
-3.008521849999999904e+04
-3.008331710000000021e+04
-3.008737759999999980e+04
-3.008579690000000119e+04
-3.008409340000000157e+04
-3.008810659999999916e+04
-3.008640179999999964e+04
-3.008702669999999853e+04
-3.008677620000000024e+04
-3.008471949999999924e+04
-3.008677500000000146e+04
-3.008329560000000129e+04
-3.008540959999999905e+04
-3.008022629999999845e+04
-3.008428889999999956e+04
-3.008960889999999927e+04
-3.008520449999999983e+04
-3.008852709999999934e+04
-3.008593549999999959e+04
-3.008530960000000050e+04
-3.008639010000000053e+04
-3.008639730000000054e+04
-3.008344870000000083e+04
-3.008669659999999931e+04
-3.008595260000000053e+04
-3.008260280000000057e+04
-3.008785780000000159e+04
-3.008554239999999845e+04
-3.008818809999999939e+04
-3.008576429999999891e+04
-3.008843470000000161e+04
-3.008608039999999892e+04
-3.008409950000000026e+04
-3.008706970000000001e+04
-3.008708929999999964e+04
-3.008497660000000178e+04
-3.008797390000000087e+04
-3.008482140000000072e+04
-3.008730960000000050e+04
-3.008521770000000106e+04
-3.008401780000000144e+04
-3.008484319999999934e+04
-3.008472920000000158e+04
-3.008561520000000019e+04
-3.009092239999999947e+04
-3.008532259999999951e+04
-3.008755740000000151e+04
-3.008984449999999924e+04
-3.008520149999999921e+04
-3.008728550000000178e+04
-3.008870409999999902e+04
-3.008662649999999849e+04
-3.008381869999999981e+04
-3.008255840000000171e+04
-3.008487189999999828e+04
-3.008842060000000129e+04
-3.008667589999999836e+04
-3.008427709999999934e+04
-3.008551589999999851e+04
-3.008678210000000036e+04
-3.008511290000000008e+04
-3.008364670000000115e+04
-3.008174369999999908e+04
-3.008724329999999827e+04
-3.008547950000000128e+04
-3.008220910000000003e+04
-3.008308750000000146e+04
-3.008768140000000130e+04
-3.008733669999999984e+04
-3.008723259999999937e+04
-3.008661569999999847e+04
-3.008628689999999915e+04
-3.008547190000000046e+04
-3.008515610000000015e+04
-3.008531139999999868e+04
-3.008558949999999822e+04
-3.008219680000000153e+04
-3.008447469999999885e+04
-3.008383599999999933e+04
-3.008600129999999990e+04
-3.008034119999999893e+04
-3.008695550000000003e+04
-3.008634130000000005e+04
-3.008726429999999891e+04
-3.008420750000000044e+04
-3.008696110000000044e+04
-3.008893400000000111e+04
-3.008348050000000148e+04
-3.008217420000000129e+04
-3.008399220000000059e+04
-3.007953199999999924e+04
-3.008665680000000066e+04
-3.008634969999999885e+04
-3.008321399999999994e+04
-3.008811230000000069e+04
-3.008426139999999941e+04
-3.008531209999999919e+04
-3.008674250000000029e+04
-3.008489990000000034e+04
-3.008517640000000029e+04
-3.008732519999999931e+04
-3.008717640000000029e+04
-3.008315199999999822e+04
-3.008334419999999955e+04
-3.008571630000000005e+04
-3.008091600000000108e+04
-3.008620070000000123e+04
-3.008682029999999941e+04
-3.008609500000000116e+04
-3.008686490000000049e+04
-3.009022290000000066e+04
-3.009002999999999884e+04
-3.008755540000000110e+04
-3.008726060000000143e+04
-3.008895209999999861e+04
-3.008447320000000036e+04
-3.008527379999999903e+04
-3.008871979999999894e+04
-3.008038989999999831e+04
-3.008276390000000174e+04
-3.008797839999999997e+04
-3.009047379999999976e+04
-3.008895679999999993e+04
-3.008673359999999957e+04
-3.009000530000000072e+04
-3.008883569999999963e+04
-3.008567079999999987e+04
-3.008656850000000122e+04
-3.008535109999999986e+04
-3.008520279999999912e+04
-3.008691560000000027e+04
-3.008714219999999841e+04
-3.008410880000000179e+04
-3.008855779999999868e+04
-3.008424469999999928e+04
-3.008871879999999874e+04
-3.008427260000000024e+04
-3.008488090000000011e+04
-3.008493570000000182e+04
-3.008775279999999839e+04
-3.008758000000000175e+04
-3.008671110000000044e+04
-3.008576160000000164e+04
-3.008602530000000115e+04
-3.008694029999999839e+04
-3.008400070000000051e+04
-3.008642280000000028e+04
-3.008750749999999971e+04
-3.008280329999999958e+04
-3.008374369999999908e+04
-3.008344129999999859e+04
-3.008458580000000075e+04
-3.008498189999999886e+04
-3.008722070000000167e+04
-3.008943570000000182e+04
-3.008099339999999938e+04
-3.008585150000000067e+04
-3.008556780000000072e+04
-3.008812289999999848e+04
-3.008218189999999959e+04
-3.007931070000000182e+04
-3.008336809999999969e+04
-3.008572469999999885e+04
-3.008307019999999829e+04
-3.008430979999999909e+04
-3.008872409999999945e+04
-3.008567190000000119e+04
-3.008737189999999828e+04
-3.008628600000000006e+04
-3.008666920000000027e+04
-3.008194970000000103e+04
-3.008084509999999864e+04
-3.008224829999999929e+04
-3.008618660000000091e+04
-3.008586109999999826e+04
-3.008613279999999941e+04
-3.008380800000000090e+04
-3.008453389999999854e+04
-3.008756220000000030e+04
-3.008029109999999855e+04
-3.008718049999999857e+04
-3.008409500000000116e+04
-3.008685680000000139e+04
-3.008600969999999870e+04
-3.008594859999999971e+04
-3.008051580000000104e+04
-3.008603499999999985e+04
-3.008297420000000056e+04
-3.008464939999999842e+04
-3.008380700000000070e+04
-3.008751420000000144e+04
-3.008598180000000139e+04
-3.008467350000000079e+04
-3.008391159999999945e+04
-3.008651670000000013e+04
-3.008540429999999833e+04
-3.008808090000000084e+04
-3.008195089999999982e+04
-3.008657050000000163e+04
-3.008576619999999821e+04
-3.008797550000000047e+04
-3.008218130000000019e+04
-3.008398300000000017e+04
-3.008576169999999911e+04
-3.008269190000000162e+04
-3.008601940000000104e+04
-3.008710559999999896e+04
-3.008347629999999845e+04
-3.008749039999999877e+04
-3.008417929999999978e+04
-3.008729130000000077e+04
-3.008714660000000003e+04
-3.008554720000000088e+04
-3.008329769999999917e+04
-3.008591129999999976e+04
-3.008338039999999819e+04
-3.008482609999999841e+04
-3.008436309999999867e+04
-3.008705110000000059e+04
-3.008519169999999940e+04
-3.008464159999999902e+04
-3.008672680000000037e+04
-3.008748050000000148e+04
-3.008188070000000153e+04
-3.008595100000000093e+04
-3.008942949999999837e+04
-3.008614059999999881e+04
-3.008731009999999878e+04
-3.008692970000000059e+04
-3.008633250000000044e+04
-3.008523389999999927e+04
-3.008551310000000012e+04
-3.008741830000000118e+04
-3.008427449999999953e+04
-3.008436539999999877e+04
-3.008470239999999831e+04
-3.008665000000000146e+04
-3.008536820000000080e+04
-3.008409930000000168e+04
-3.008485930000000008e+04
-3.008636260000000038e+04
-3.008735780000000159e+04
-3.008465190000000075e+04
-3.008568049999999857e+04
-3.008999980000000141e+04
-3.008603859999999986e+04
-3.008183559999999852e+04
-3.008632259999999951e+04
-3.008843330000000060e+04
-3.008199959999999919e+04
-3.008634300000000076e+04
-3.008450930000000153e+04
-3.008460280000000057e+04
-3.008346440000000075e+04
-3.008766159999999945e+04
-3.008991649999999936e+04
-3.008343179999999847e+04
-3.008550690000000031e+04
-3.008627839999999924e+04
-3.008533799999999974e+04
-3.008860250000000087e+04
-3.008373080000000118e+04