-5.366057613748699140e+01 1.397352821933199962e+01 -1.242944951010399990e+01 1.397352821933199962e+01 -6.779350551709998740e+01 7.501457012741999719e+00 -1.242944951010399990e+01 7.501457012741999719e+00 -3.633002107271899206e+01
-2.281357087925299965e+01 -9.819495572491000246e+00 2.083738059094999873e+00 -9.819495572491000246e+00 -4.140013026719899614e+01 6.214724755051999949e+00 2.083738059094999873e+00 6.214724755051999949e+00 -5.189371990304699267e+01
-4.582687333283399767e+01 -9.677378875372998124e+00 8.137141157959000282e+00 -9.677378875372998124e+00 -5.395249151535099230e+01 9.831018547932998786e+00 8.137141157959000282e+00 9.832939043839999727e+00 -6.670266384192399300e+01
-6.145394852809299380e+01 -6.767827576267999135e+00 -4.440186536983999233e+00 -6.767827576267999135e+00 -3.626856520369499037e+01 5.481095318577999365e+00 -4.440186536983999233e+00 5.481095318577999365e+00 -9.169215658380798573e+01
-4.758604758364599974e+01 -1.434610442528999918e+01 -6.491276165659998210e-01 -1.434610442528999918e+01 -6.646260185354898908e+01 -1.521416857525399813e+01 -6.491276165659998210e-01 -1.521416857525399813e+01 -6.564831158898098806e+01
-1.425968210947499770e+01 -1.448053913877999754e+00 1.396200524388999931e+01 -1.448053913877999754e+00 -3.558294816489599555e+01 6.856170387989998893e+00 1.396200524388999931e+01 6.856170387989998893e+00 -2.171312672454199699e+01
-4.493768372789299548e+01 7.987342477212999725e+00 9.819495572491000246e+00 7.987342477212999725e+00 -5.446334342661299388e+01 -2.482625058978899446e+01 9.819495572491000246e+00 -2.482625058978899446e+01 -7.134450244914299333e+01
-2.077400422601899876e+01 -8.381044138147998979e+00 1.123298056004299816e+01 -8.381044138147998979e+00 -3.365092928245399406e+01 -2.029964173698999730e+01 1.123106006413599900e+01 -2.029964173698999730e+01 -5.893809888992299761e+01
-2.126949217002499637e+01 8.968715885689999556e-01 1.328983167643999819e+00 8.968715885689999556e-01 -2.133478903086299994e+01 7.891317681862998867e+00 1.328983167643999819e+00 7.891317681862998867e+00 -1.552144792037399945e+01
-3.611300503522799943e+01 7.874033218699998393e-01 8.840042659921000023e+00 7.874033218699998393e-01 -2.647403607799499881e+01 6.370284923518999776e+00 8.840042659921000023e+00 6.368364427611998835e+00 -4.342241245726999921e+01
-5.869995739745498753e+01 9.775324166629998146e+00 2.149034919932999887e+00 9.775324166629998146e+00 -6.694464632620599787e+01 -9.988499212306997777e+00 2.149034919932999887e+00 -9.988499212306997777e+00 -4.502218554780099424e+01
-7.091239087006799480e+01 -5.657780942021998882e+00 -1.249666686684899730e+01 -5.657780942021998882e+00 -5.497419533787499546e+01 4.021518429257999294e+00 -1.249666686684899730e+01 4.021518429257999294e+00 -3.690424934891199626e+01
-2.870949331374299618e+01 6.733258649941999074e+00 -1.507589286994999833e+00 6.733258649941999074e+00 -2.492035488923199793e+01 2.732865675660999472e+00 -1.507589286994999833e+00 2.732865675660999472e+00 -3.243717586922999629e+01
-1.763399341807399523e+01 -7.948932559072999560e+00 -1.223547942349699902e+01 -7.948932559072999560e+00 -3.985029007024999625e+00 5.181497957085999140e+00 -1.223547942349699902e+01 5.181497957085999140e+00 -3.608611809253000047e+01
-6.012688585635599736e+01 -6.445184263891999166e+00 1.316307894657799871e+01 -6.445184263891999166e+00 -5.732104133622898701e+01 3.879401732139999837e-01 1.316307894657799871e+01 3.879401732139999837e-01 -2.411950809601299994e+01
-4.000392974280999425e+01 2.799314834043199696e+01 -1.117344518692599920e+01 2.799314834043199696e+01 -3.129448080456499781e+01 3.397357259482999492e+00 -1.117344518692599920e+01 3.397357259482999492e+00 -4.558489084855199280e+01
-4.347618634266599003e+01 -9.681219867187000006e+00 -5.978503758490998798e+00 -9.681219867187000006e+00 -2.399851685387199751e+01 -8.884214065781998571e+00 -5.978503758490998798e+00 -8.884214065781998571e+00 -2.757640072861299529e+01
-6.055515644361700112e+01 -3.226433123759999688e+00 4.749386378010999721e+00 -3.226433123759999688e+00 -5.988298287616699156e+01 1.225468438256699955e+01 4.749386378010999721e+00 1.225468438256699955e+01 -6.474759900859798734e+01
-6.028052552891599447e+01 -2.381414924679999823e-01 -1.117728617873999752e+01 -2.381414924679999823e-01 -4.073947967519099222e+01 2.189365333979999828e-01 -1.117728617873999752e+01 2.189365333979999828e-01 -5.646065916989299893e+01
-5.355110787078799461e+01 1.215673909130999819e+00 -1.188210817660899821e+01 1.215673909130999819e+00 -4.170164812459799464e+01 -6.351079964448999249e+00 -1.188210817660899821e+01 -6.351079964448999249e+00 -4.319771443615099571e+01
-2.187444838072999787e+01 2.448632281424999668e+00 -1.896873807343899898e+01 2.448632281424999668e+00 -5.692926017120099402e+01 8.117936198888997978e+00 -1.896873807343899898e+01 8.117936198888997978e+00 -6.527189439120900261e+01
-5.446718441842699576e+01 -6.427899800728999580e+00 -1.236991413698699738e+01 -6.427899800728999580e+00 -2.669873409911399520e+01 -2.387176412400999759e+00 -1.236991413698699738e+01 -2.387176412400999759e+00 -2.673330302543999792e+01
-2.011143313810399746e+01 -3.568281395205999740e+00 -6.032277643886999385e+00 -3.568281395205999740e+00 -1.267335249029299860e+01 1.425200012584699749e+01 -6.034198139793998550e+00 1.425200012584699749e+01 -2.500101571732599837e+01
-4.989256316795299284e+01 -1.317076093020599892e+01 -7.263315520273999404e+00 -1.317076093020599892e+01 -4.599587697264999520e+01 -9.911679376026999222e+00 -7.263315520273999404e+00 -9.911679376026999222e+00 -1.335128754546399854e+01
-3.337437787184600069e+01 -9.602479534999999733e-03 -7.943171071351998513e+00 -9.602479534999999733e-03 -6.163447514335099697e+01 3.867878756697999965e+00 -7.943171071351998513e+00 3.867878756697999965e+00 -3.533712468879999591e+01
-5.492810343610699420e+01 1.621474694280099982e+01 1.579607883507499722e+01 1.621474694280099982e+01 -5.222404519905099107e+01 6.986764109665999811e+00 1.579607883507499722e+01 6.986764109665999811e+00 -1.512198477171799915e+01
-5.010765870953699164e+01 6.195519795981999422e+00 2.128293564137399585e+01 6.195519795981999422e+00 -3.643756884351099501e+01 1.664109703415499908e+01 2.128293564137399585e+01 1.664109703415499908e+01 -2.812566255801499793e+01
-2.570391721928799811e+01 1.425968210947499770e+01 5.329376141924999644e+00 1.425968210947499770e+01 -3.872872046056199480e+01 2.237377731654999646e+00 5.329376141924999644e+00 2.237377731654999646e+00 -2.672178004999799583e+01
-6.296153781508799341e+01 1.079894848506099869e+01 -1.718843836764999633e+00 1.079894848506099869e+01 -1.677361125173800005e+01 9.304802669415000338e+00 -1.718843836764999633e+00 9.304802669415000338e+00 -4.666228905237899482e+01
-6.229128474354499190e+01 3.347424365900999454e+00 2.292111865004499549e+01 3.347424365900999454e+00 -6.112938471980998401e+01 2.404844974745399711e+01 2.292111865004499549e+01 2.404844974745399711e+01 -7.190144626217299617e+01
-2.114850092788399749e+01 1.145767858116199811e+01 -2.915312786825999591e+00 1.145767858116199811e+01 -6.183612721358598918e+01 -7.359340315623998485e+00 -2.915312786825999591e+00 -7.359340315623998485e+00 -5.927610616955499268e+01
-4.614759614930299136e+01 8.911101008479999308e+00 6.798555510779998867e-01 8.911101008479999308e+00 -2.054738570899299788e+01 -4.951038448245999035e+00 6.798555510779998867e-01 -4.951038448245999035e+00 -4.055511206811899427e+01
-1.478205699617899782e+01 -7.729996025674998883e+00 -9.980817228678999342e+00 -7.729996025674998883e+00 -2.869220885057999659e+00 -1.123106006413599900e+01 -9.980817228678999342e+00 -1.123106006413599900e+01 -1.461881484408399778e+01
-3.165361353917399612e+01 -1.249282587503499897e+01 -3.360867837249999823e+00 -1.249282587503499897e+01 -4.347426584675899619e+01 -2.410222363284999947e+00 -3.360867837249999823e+00 -2.410222363284999947e+00 -4.901681703436099724e+01
-1.273480835931699851e+01 7.643573709859999843e-01 -1.280778720378299695e+01 7.643573709859999843e-01 -3.480898831437499297e+01 -3.879401732139999837e+00 -1.280778720378299695e+01 -3.879401732139999837e+00 -4.724996079992099141e+01
-4.845219123770299774e+01 -3.278286513248999334e+00 -2.302674592492999661e+00 -3.278286513248999334e+00 -4.429815859086199481e+01 3.842912309906999724e+00 -2.302674592492999661e+00 3.842912309906999724e+00 -4.111397637705599806e+01
-3.617254040834500017e+01 -8.757461335919998646e+00 4.668725549916999285e+00 -8.757461335919998646e+00 -7.056286061499397988e+01 -6.280021615889999076e+00 4.668725549916999285e+00 -6.280021615889999076e+00 -3.470912252721099378e+01
-2.111969348927899759e+01 -8.878452578060999301e+00 -6.155189381934999204e+00 -8.878452578060999301e+00 -4.014796693583499376e+01 -2.892266835941999403e+00 -6.155189381934999204e+00 -2.892266835941999403e+00 -1.307665663076299900e+01
-4.586336275506699423e+01 -1.040716732003299860e+01 2.113313696062799707e+01 -1.040716732003299860e+01 -5.307290438994499482e+01 -1.305937216759999764e+01 2.113313696062799707e+01 -1.305937216759999764e+01 -6.587685060191398634e+01
-5.658741189975499708e+01 -2.615523375743299539e+01 -5.281363744249999437e-01 -2.615523375743299539e+01 -7.426173573187598720e+01 1.718843836764999722e+01 -5.281363744249999437e-01 1.718651787174299983e+01 -7.326499835614299627e+01
-4.519118918761699177e+01 7.224905602133999238e+00 -2.974656110352299621e+01 7.224905602133999238e+00 -4.294420897642699231e+01 -4.807001255220999525e+00 -2.974656110352299621e+01 -4.807001255220999525e+00 -5.261774685998599210e+01
-6.004046354054099055e+01 1.204727082461099918e+01 1.603614082344999803e+00 1.204727082461099918e+01 -6.472263256180698932e+01 -3.117733055423799371e+01 1.603614082344999803e+00 -3.117541005833099632e+01 -4.311129212033599600e+01
-3.191288048661899523e+01 -9.654332924488999268e+00 -1.471099864761999720e+00 -9.656253420396000209e+00 -2.884200753132599715e+01 -2.102750968574299861e+01 -1.471099864761999720e+00 -2.102750968574299861e+01 -5.077983227698699409e+01
-7.411385754703698581e+01 -9.268313247182000225e+00 2.748997841279799559e+01 -9.268313247182000225e+00 -4.771280031350799788e+01 9.629366477697999471e+00 2.748997841279799559e+01 9.629366477697999471e+00 -2.555988002626299505e+01
-7.343976348367998952e+00 -5.932411856722999310e+00 8.440579511264997947e+00 -5.932411856722999310e+00 -3.299411968225999914e+01 -1.102364650617999819e+00 8.440579511264997947e+00 -1.102364650617999819e+00 -3.337245737593899264e+01
-4.738631600931799426e+01 -7.384306762414999170e+00 -1.257348670312899763e+01 -7.384306762414999170e+00 -6.279445467117898971e+01 -9.064740681039999970e+00 -1.257540719903599857e+01 -9.064740681039999970e+00 -3.771853961347999729e+01
-1.734207804020999832e+00 6.523924596078998661e+00 -1.217594405037999872e+00 6.523924596078998661e+00 -5.523730327713398935e+01 -1.345883531625599971e+01 -1.217594405037999872e+00 -1.345883531625599971e+01 -1.046094120542899830e+01
-6.105448537943698994e+01 -8.816996709036997615e+00 5.342819613274000012e+00 -8.816996709036997615e+00 -5.463618805824299329e+01 -6.740940633569999285e+00 5.344740109180999177e+00 -6.740940633569999285e+00 -3.149997386661399545e+01
-3.425780598906599295e+01 -9.160765476389999051e+00 1.083159691547999959e+00 -9.160765476389999051e+00 -4.852901107398299274e+01 -4.912628530105998870e+00 1.083159691547999959e+00 -4.912628530105998870e+00 -5.914935343969299453e+01
-5.582305452876899210e+01 7.347817340181999057e+00 -4.945276960524999765e+00 7.347817340181999057e+00 -4.593826209543999539e+01 4.284626368516999406e+00 -4.945276960524999765e+00 4.284626368516999406e+00 -5.549657022457898847e+01
-3.135977766540299427e+01 -1.075477707919999748e+00 1.413869086733399705e+01 -1.075477707919999748e+00 -4.194363060887999239e+01 2.268105666166999601e+00 1.413869086733399705e+01 2.268105666166999601e+00 -3.458044930144199469e+01
-3.596320635448199710e+01 2.004997726907999933e+00 -2.679091790264999773e+00 2.004997726907999933e+00 -2.870757281783599524e+01 1.077014104645599879e+01 -2.679091790264999773e+00 1.077014104645599879e+01 -6.572897241707498495e+01
-2.604000400301299578e+01 1.507589286994999833e+00 1.388518540760999898e+00 1.505668791087999780e+00 -3.548500287363899730e+01 -2.667568814822999901e+00 1.388518540760999898e+00 -2.667568814822999901e+00 -3.562135808303599305e+01
-4.490503529747399369e+01 7.541787426788999049e+00 3.894765699395999370e+00 7.541787426788999049e+00 -1.813908384161499754e+01 8.073764793027999431e+00 3.894765699395999370e+00 8.073764793027999431e+00 -2.290383418688199768e+01
-1.909933179511499901e+01 4.353764221168999526e+00 1.116960419511199909e+01 4.353764221168999526e+00 -3.693881827523799899e+01 1.227580983754399924e+01 1.116960419511199909e+01 1.227580983754399924e+01 -1.433650194575499803e+01
-3.464958715409399304e+01 6.045721115235999754e+00 -8.980238861131997652e+00 6.045721115235999754e+00 -3.498183294600499238e+01 5.517584740810999477e+00 -8.980238861131997652e+00 5.517584740810999477e+00 -1.954680734144599796e+01
-1.093914468627199810e+01 -6.664120797289998510e-01 5.538710195787999169e+00 -6.664120797289998510e-01 -4.317850947708099341e+01 -8.786268774524998548e+00 5.538710195787999169e+00 -8.786268774524998548e+00 -2.379878527954399914e+01
4.751306873917999773e+00 1.186482371344599862e+01 -1.828888252236099987e+01 1.186482371344599862e+01 -5.296535661915299187e+01 4.115622728700999211e+00 -1.828888252236099987e+01 4.115622728700999211e+00 6.813919478035998623e+00
-2.524299820160799612e+01 8.738256376849998786e-01 -1.135781279399799892e+01 8.738256376849998786e-01 -2.945848671747299719e+01 4.225090995399999549e+00 -1.135781279399799892e+01 4.225090995399999549e+00 -3.272525025527999532e+01
-4.951038448245999746e+01 -1.056272748849999843e+01 -4.059928347397999460e+00 -1.056272748849999843e+01 -5.840420102777699185e+01 -1.050895360310399873e+01 -4.059928347397999460e+00 -1.050895360310399873e+01 -4.088543736412299268e+01
-2.410414412875699597e+01 1.554641436716499747e+01 1.912237774599899964e+01 1.554641436716499747e+01 -2.668721112367199666e+01 -8.503955876195998798e+00 1.912237774599899964e+01 -8.503955876195998798e+00 -2.977920953394199799e+01
-7.691202008353599240e+01 -1.732095258523299464e+01 1.413677037142699966e+01 -1.732095258523299464e+01 -3.352993804031299163e+01 2.002885181410299964e+01 1.413677037142699966e+01 2.002885181410299964e+01 -5.718852711864599314e+01
-6.809310287859199207e+01 3.209148660596999658e+00 6.518163108357999391e+00 3.209148660596999658e+00 -4.634156623590999402e+01 6.539288563334999083e+00 6.518163108357999391e+00 6.539288563334999083e+00 -5.610344693119099446e+01
-4.765902642811199996e+01 -2.212411284863999850e+00 -1.192243859065599842e+01 -2.212411284863999850e+00 -3.490309261381799644e+01 -1.661228959554999562e+01 -1.192243859065599842e+01 -1.661228959554999562e+01 -4.293652699279898854e+01
-4.489927380975299798e+01 4.417140586099999489e+00 -9.813734084769999200e+00 4.417140586099999489e+00 1.052815856217399926e+01 1.244481347735999943e+00 -9.813734084769999200e+00 1.244481347735999943e+00 -2.692919360795399442e+01
-3.646445578620899397e+01 -4.202045044515998917e+00 1.227388934163699830e+01 -4.202045044515998917e+00 -4.525264505664099346e+01 5.417718953646999402e+00 1.227388934163699830e+01 5.415798457739999350e+00 -3.323226117472799501e+01
-3.034575582650699488e+01 -5.198782420248999614e+00 -1.452471054464099787e+01 -5.198782420248999614e+00 -3.534288617652099163e+01 3.961983056140999881e+00 -1.452471054464099787e+01 3.961983056140999881e+00 -3.381993292226999870e+01
-4.284626368516999406e+01 6.057244090677999182e+00 6.449025255705999271e+00 6.057244090677999182e+00 -4.582879382874099150e+01 1.042445178319599819e+01 6.449025255705999271e+00 1.042253128728899902e+01 -4.254474582777099556e+01
-2.506631257816399483e+01 -6.379887403053999151e+00 4.764750345266999254e+00 -6.379887403053999151e+00 -4.486662537933399619e+01 9.164606468203999157e+00 4.764750345266999254e+00 9.162685972296998216e+00 -5.480327120215198988e+01
-2.739011262563399640e+01 -4.321115790749999519e+00 -1.295950638043599845e+01 -4.321115790749999519e+00 -5.874412880331599496e+01 -2.573464515379999540e-01 -1.295950638043599845e+01 -2.573464515379999540e-01 -4.038994942011699862e+01
-2.350110841395899541e+01 -5.655860446114999718e+00 7.489934037299998959e-01 -5.655860446114999718e+00 -1.746498977825799770e+01 -3.960062560233999385e+00 7.489934037299998959e-01 -3.960062560233999385e+00 -4.606309432939499260e+01
-3.938168906894199495e+01 -9.802211109327998884e+00 1.091801923129499841e+01 -9.802211109327998884e+00 -3.583261263280599707e+01 1.094874716580699925e+01 1.091801923129499841e+01 1.094874716580699925e+01 -2.114465993606999916e+01
-3.648366074527899627e+01 -2.538895589053999924e+00 -1.395240276435499815e+01 -2.538895589053999924e+00 -2.750150138823999502e+00 -5.728839290580999055e+00 -1.395240276435499815e+01 -5.728839290580999055e+00 -1.093146270264399789e+01
-5.751309092692899583e+01 -1.403882508016999786e+01 -5.435003416809999210e-01 -1.403882508016999786e+01 -2.706170782553699539e+01 -1.811603789073099691e+01 -5.435003416809999210e-01 -1.811603789073099691e+01 -2.896491926937399697e+01
-2.365858907833299796e+01 1.665838149731799689e+01 -3.141931303851999591e+00 1.665838149731799689e+01 -6.511249323092798136e+01 -1.243713149373199833e+01 -3.140010807944999538e+00 -1.243713149373199833e+01 -4.789332692876599396e+01
-1.549264048176899777e+01 -9.811813588862998259e+00 1.238719860014999874e+01 -9.813734084769999200e+00 -3.990982544336699789e+01 -1.465338377040999784e+00 1.238719860014999874e+01 -1.465338377040999784e+00 -3.276942166114099564e+01
-2.416175900596699577e+01 -1.803729755854399741e+01 1.594587751582099777e+01 -1.803729755854399741e+01 3.483779575297999642e+00 -4.945276960524999765e+00 1.594587751582099777e+01 -4.945276960524999765e+00 -5.047063243595999893e+01
-1.027465310244999763e+01 -2.949881713151999652e+00 -5.613609536160998559e+00 -2.949881713151999652e+00 -3.014602425217899295e+01 -1.017862830709999888e-01 -5.613609536160998559e+00 -1.017862830709999888e-01 -2.748613742098399726e+01
-5.689085025306098942e+01 -7.720393546139999730e-01 -5.828705077744999130e+00 -7.720393546139999730e-01 -1.461689434817699684e+01 -7.416955192833999178e+00 -5.828705077744999130e+00 -7.416955192833999178e+00 -3.283087753016499732e+01
4.734022410755000188e+00 4.405617610657999172e+00 7.520661971811999358e+00 4.405617610657999172e+00 -3.221631883992500178e+01 9.043615226062998502e+00 7.520661971811999358e+00 9.043615226062998502e+00 -4.574045101701899796e+01
-4.324380633791898987e+01 -1.480126195524899835e+01 -3.301332464132999522e+00 -1.480126195524899835e+01 -3.113507964428399788e+01 -2.090459794769499879e+01 -3.299411968225999470e+00 -2.090459794769499879e+01 -3.103329336121299420e+01
-4.939515472803999074e+01 8.110254215260999544e+00 -6.715974186778999488e+00 8.110254215260999544e+00 -6.466501768459698951e+01 9.807972597048999930e+00 -6.715974186778999488e+00 9.807972597048999930e+00 -2.966013878770799650e+01
-4.573853052111199702e+01 -4.086815290095999309e+00 -9.746516728024998244e+00 -4.086815290095999309e+00 -3.760907134678099339e+01 1.146536056478999921e+00 -9.746516728024998244e+00 1.146536056478999921e+00 -4.717122046773399546e+01
-1.957561478005099787e+01 1.042253128728899902e+01 1.181489081986399903e+01 1.042253128728899902e+01 -3.831965483237099335e+01 1.303824671262299795e+01 1.181681131577099819e+01 1.303824671262299795e+01 -2.756871874498499508e+01
-5.972742270769999351e+01 1.532555733785999852e+00 -9.928963839189998142e-01 1.532555733785999852e+00 -4.561945977487799553e+01 -9.794529125699998062e-02 -9.928963839189998142e-01 -9.794529125699998062e-02 -5.496075186652599598e+01
-3.348000514673099559e+01 1.301328026583199815e+01 7.568674369486998899e+00 1.301328026583199815e+01 -4.853477256170399556e+01 -8.475148437590998896e+00 7.568674369486998899e+00 -8.477068933497999836e+00 -4.846371421314499628e+01
-5.178425163634798878e+01 -2.880743860499999531e+00 1.001730665091199945e+01 -2.880743860499999531e+00 -2.596702515854699556e+01 1.456888195050199819e+01 1.001730665091199945e+01 1.456888195050199819e+01 -7.577892749840599151e+01
-4.737671352978299666e+01 2.061652356164499622e+01 3.070872955292999418e+00 2.061652356164499622e+01 -3.604002619076199920e+01 1.152297544199999829e-01 3.070872955292999418e+00 1.152297544199999829e-01 -3.271756827165199155e+01
-4.278288732023899854e+01 -1.761670895491099742e+01 2.510088150448999578e+00 -1.761670895491099742e+01 -4.382379610183298979e+01 -1.845596566626999779e+00 2.510088150448999578e+00 -1.845596566626999779e+00 -6.524884844032499132e+01
-5.203967759197899312e+01 2.006918222814999542e+00 -2.971007168128999787e+00 2.006918222814999542e+00 -3.510858567586699053e+01 -3.729603051393999280e+00 -2.971007168128999787e+00 -3.729603051393999280e+00 -3.847329450493099046e+01
-6.068959115710698882e+01 -1.657003868559599979e+01 -3.929334625721999874e+00 -1.657003868559599979e+01 -7.099497219406899262e+01 -6.126381943329999302e+00 -3.929334625721999874e+00 -6.126381943329999302e+00 -3.011337582175999472e+01
-6.389489882588999414e+00 2.825049479196999780e+00 5.652019454300998724e+00 2.825049479196999780e+00 -2.202808805328999586e+00 -8.409851576752998881e+00 5.652019454300998724e+00 -8.409851576752998881e+00 -5.106214517531599739e+01
-5.116969294610799324e+01 1.429233053989399771e+01 -2.050705529494599588e+01 1.429233053989399771e+01 -4.412147296741800062e+01 -1.304976968806499826e+01 -2.050705529494599588e+01 -1.304976968806499826e+01 -6.538904464153598894e+01
-4.902449901798899390e+01 -4.828126710198000104e+00 4.745545386196999615e+00 -4.830047206104999269e+00 -2.024778834750099676e+01 5.611689040253999394e+00 4.745545386196999615e+00 5.611689040253999394e+00 -2.378918280000899799e+01
-5.069340996117199438e+01 5.836387061372999341e+00 1.499715253776299839e+01 5.836387061372999341e+00 -4.239494714702499323e+01 -1.343963035718599741e+01 1.499715253776299839e+01 -1.343963035718599741e+01 -6.521812050581300468e+01
-3.186102709712999825e+01 1.125218551911299869e+01 -6.838885924826999307e+00 1.125218551911299869e+01 -3.704828654193699577e+01 9.744596232117999079e+00 -6.838885924826999307e+00 9.744596232117999079e+00 -3.888428062902899995e+01
-1.746883077007199603e+01 -1.030538103696199848e+01 -1.497986807459999736e-01 -1.030538103696199848e+01 -4.015564891946299753e+01 9.295200189879997410e+00 -1.497986807459999736e-01 9.295200189879997410e+00 -3.601698023987799502e+01
-6.446336561436199020e+01 1.056272748849999971e-01 2.606112945798999547e+00 1.056272748849999971e-01 -2.744196601512299694e+01 4.148271159119999441e-01 2.606112945798999547e+00 4.148271159119999441e-01 -6.354728906672299615e+01
-3.474753244535099839e+01 2.023818586796599917e+01 2.231616243933999932e+00 2.023818586796599917e+01 -4.692347649573099488e+01 -1.369505631281699820e+01 2.231616243933999932e+00 -1.369505631281699820e+01 -5.433659069675098863e+01
-5.651635355119599069e+01 3.454972136692999740e+00 -5.239112834295998944e+00 3.454972136692999740e+00 -3.558294816489599555e+01 1.652202628792099759e+01 -5.241033330202999885e+00 1.652202628792099759e+01 -3.921076493321899648e+01
-2.607457292933899851e+01 1.780107656198299537e+01 5.713475323324999522e+00 1.780107656198299537e+01 -6.386032989956398609e+01 -1.114847874013499940e+01 5.713475323324999522e+00 -1.114847874013499940e+01 -2.888617893718699747e+01
-2.456890413825099628e+01 4.609190176799999455e-02 -2.419824842819999766e+00 4.609190176799999455e-02 -2.494724183192999689e+01 2.049169132768999813e+00 -2.419824842819999766e+00 2.049169132768999813e+00 -1.917039014367399830e+01
-5.818910548619299306e+01 8.085287768469998637e-01 3.660465198741999604e+00 8.085287768469998637e-01 -6.269458888401499053e+01 -5.742282761929999868e-01 3.660465198741999604e+00 -5.742282761929999868e-01 -3.546963890638299688e+01
-3.891116757172699891e+01 -7.883635698234999545e+00 -1.177263990990999787e+01 -7.883635698234999545e+00 -2.756295725726399581e+01 6.570016497846999037e+00 -1.177071941400299870e+01 6.570016497846999037e+00 -5.937597195671899186e+01
-2.669489310729999509e+00 -9.621684494069999705e-01 2.316118063841999586e+00 -9.640889453139998011e-01 -1.286732257689999770e-01 8.407931080845999716e+00 2.316118063841999586e+00 8.407931080845999716e+00 -3.024396954343599830e+01
-4.203197342060199304e+01 5.895922434489999198e+00 -7.547548914509999429e-01 5.895922434489999198e+00 -7.785882456568698728e+01 3.456892632599999765e-02 -7.547548914509999429e-01 3.456892632599999765e-02 -2.431731917443399738e+01
-2.777613230294099722e+01 4.273103393074999090e+00 1.134052833083499756e+01 4.273103393074999090e+00 -4.735558807480599341e+01 -1.229117380479999966e+00 1.134052833083499756e+01 -1.229117380479999966e+00 -5.283284240156999090e+01
-2.943928175840299843e+01 -1.878052947455299559e+01 4.578462242287999473e+00 -1.878052947455299559e+01 -2.847711330899599602e+01 7.461126598694999501e+00 4.578462242287999473e+00 7.461126598694999501e+00 -5.444989995526398729e+01
-3.364708829063999929e+00 1.304016720852999800e+00 -2.293072112957999842e+00 1.302096224945999747e+00 -3.349152812217299413e+01 -4.115622728700999211e+00 -2.294992608864999895e+00 -4.115622728700999211e+00 -6.981002621944999653e+00
-2.555795953035599766e+01 -1.614945008196299625e+01 9.523739202812999238e+00 -1.614945008196299625e+01 -2.118883134193099593e+01 2.014600206442999752e+00 9.523739202812999238e+00 2.014600206442999752e+00 -2.289423170734699653e+01
-1.386405995263299751e+01 -8.229324961494999258e+00 1.213561363633299806e+01 -8.229324961494999258e+00 -4.987527870478999148e+00 1.978110784209999906e+01 1.213561363633299806e+01 1.978110784209999906e+01 -9.375861017973999623e+00
-4.059352198625899177e+01 -1.143655312618499842e+01 -4.599587697264999164e+00 -1.143655312618499842e+01 -5.250059660965899155e+01 5.025937788618999313e+00 -4.599587697264999164e+00 5.025937788618999313e+00 -2.468797488448499777e+01
-3.491461558926000208e+01 7.259474528459999298e-01 -7.236428577575999554e+00 7.259474528459999298e-01 -4.173813754683099120e+01 -2.446711785517999616e+00 -7.236428577575999554e+00 -2.446711785517999616e+00 -1.710201605183499751e+01
-3.569433692750199327e+01 1.154218040106999910e+00 -1.167469461865299962e+01 1.154218040106999910e+00 -2.198007565561499632e+01 7.655096685301998605e+00 -1.167469461865299962e+01 7.655096685301998605e+00 -3.552533328768599574e+01
-1.431345599487099918e+01 1.111967130152999861e+00 -1.274633133475899704e+01 1.111967130152999861e+00 -4.611494771888398958e+01 -7.455365110973999343e+00 -1.274633133475899704e+01 -7.453444615066999290e+00 -2.967934374677799880e+01
-3.532944270517199215e+01 3.012297830129499943e+01 1.138085874488199778e+01 3.012297830129499943e+01 -2.484545554885899676e+01 -2.150955415839999496e+00 1.138085874488199778e+01 -2.150955415839999496e+00 -1.109278435883199876e+01
-2.648555905343699735e+01 8.916862496201000354e+00 8.534683810707999640e+00 8.916862496201000354e+00 -7.505105954965299020e+01 1.942005461158399626e+01 8.532763314800998700e+00 1.942005461158399626e+01 -4.318235046889499529e+01
-3.197817734745699525e+01 -1.220859248079899828e+01 3.349344861807999951e+00 -1.220859248079899828e+01 -5.603046808672499424e+01 -3.946619088884999460e+00 3.349344861807999951e+00 -3.946619088884999460e+00 -9.283677214437998870e+00
-6.549275142051399712e+01 1.533900080920899711e+01 7.670460652557999026e+00 1.533900080920899711e+01 -3.615141495336799693e+01 -3.956221568419999723e+00 7.670460652557999026e+00 -3.956221568419999723e+00 -4.827358511835198840e+01
-1.179568586079399850e+01 4.071451322839999776e+00 3.501064038460999672e+00 4.071451322839999776e+00 -3.285776447286299629e+01 -1.401769962519299817e+01 3.501064038460999672e+00 -1.401769962519299817e+01 -3.196281338020099838e+01
-6.145010753627898481e+01 1.497026559506499765e+01 1.867682269557499453e+01 1.497026559506499765e+01 -7.855020309220698493e+01 1.345499432444199783e+01 1.867682269557499453e+01 1.345691482034899877e+01 -4.378154519187899751e+01
-2.317270361386199795e+01 -2.429427322355000030e+00 8.432897527636999513e+00 -2.429427322355000030e+00 -1.375651218184099811e+01 1.329751366006799707e+01 8.432897527636999513e+00 1.329751366006799707e+01 -4.192826664162399908e+01
-6.406198196979899251e+01 -1.586521668772699734e+01 -1.047246418087099862e+01 -1.586521668772699734e+01 -9.836780035653998056e+00 -1.341466391039499761e+01 -1.047246418087099862e+01 -1.341274341448799845e+01 -1.118688865827499868e+01
-3.268107884941899499e+01 1.329943415597499801e+01 -1.180720883623599882e+01 1.329943415597499801e+01 -2.929524456537799537e+01 -7.067424937759999359e+00 -1.180720883623599882e+01 -7.067424937759999359e+00 -3.877097137051599418e+01
-3.902063583842599570e+01 -6.226247730493999377e+00 1.935859874255999813e+01 -6.226247730493999377e+00 -4.058968099444499700e+01 6.821601461663998833e+00 1.935859874255999813e+01 6.821601461663998833e+00 -4.657970772837799700e+01
-2.245635864055099873e+01 6.669882285010999112e+00 -1.977918734619299812e+01 6.669882285010999112e+00 -3.334364993733399274e+01 -1.133092585129999996e+00 -1.977918734619299812e+01 -1.133092585129999996e+00 -5.313436025896899650e+01
-6.630128019736098111e+01 6.844647412547998577e+00 -1.679473670671499619e+01 6.844647412547998577e+00 -5.222788619086499295e+01 5.993867725746999220e+00 -1.679473670671499619e+01 5.995788221653999273e+00 -5.976199163402598913e+01
1.225276388665999860e+01 -6.397171866216999625e+00 -5.492618294019999681e-01 -6.397171866216999625e+00 -5.382765928139599509e+01 -8.874611586246999195e+00 -5.492618294019999681e-01 -8.874611586246999195e+00 -1.237375512880099748e+01
-3.320729472793699699e+01 7.647414701673999282e+00 -1.555601684669999929e-01 7.647414701673999282e+00 -5.886704054136399122e+01 -1.603614082344999803e+00 -1.555601684669999929e-01 -1.603614082344999803e+00 -3.696378472202899701e+01