-3.020471210000000065e+04
-3.020069080000000031e+04
-3.020367139999999927e+04
-3.020315550000000076e+04
-3.020691719999999987e+04
-3.020664319999999861e+04
-3.020645509999999922e+04
-3.020609200000000055e+04
-3.020548440000000119e+04
-3.020615429999999833e+04
-3.020777890000000116e+04
-3.021164189999999871e+04
-3.020316739999999845e+04
-3.020584080000000176e+04
-3.020543470000000161e+04
-3.020627569999999832e+04
-3.020795390000000043e+04
-3.020848449999999866e+04
-3.020526529999999912e+04
-3.020699850000000151e+04
-3.020431799999999930e+04
-3.020666240000000107e+04
-3.020568820000000051e+04
-3.020882489999999962e+04
-3.020216820000000007e+04
-3.020748059999999896e+04
-3.020756659999999829e+04
-3.020550219999999899e+04
-3.020344129999999859e+04
-3.020686980000000040e+04
-3.020244759999999951e+04
-3.020718260000000009e+04
-3.020708410000000003e+04
-3.020475200000000041e+04
-3.020561880000000019e+04
-3.020344849999999860e+04
-3.020460880000000179e+04
-3.020612050000000090e+04
-3.020709500000000116e+04
-3.020274940000000061e+04
-3.020505270000000019e+04
-3.020633179999999993e+04
-3.020640869999999995e+04
-3.020827079999999842e+04
-3.020753960000000006e+04
-3.020788709999999992e+04
-3.020602720000000045e+04
-3.020678749999999854e+04
-3.020810930000000008e+04
-3.020548380000000179e+04
-3.020582890000000043e+04
-3.020655470000000059e+04
-3.020439159999999902e+04
-3.020528009999999995e+04
-3.020746380000000136e+04
-3.020537800000000061e+04
-3.020070369999999821e+04
-3.020582010000000082e+04
-3.020856820000000153e+04
-3.020773040000000037e+04
-3.020550839999999880e+04
-3.020643760000000111e+04
-3.020437730000000010e+04
-3.020772560000000158e+04
-3.020790910000000076e+04
-3.020207010000000082e+04
-3.020643760000000111e+04
-3.020631369999999879e+04
-3.020673010000000068e+04
-3.020843760000000111e+04
-3.020565840000000026e+04
-3.020585459999999875e+04
-3.020306179999999949e+04
-3.020957040000000052e+04
-3.020849919999999838e+04
-3.020647969999999987e+04
-3.020354859999999826e+04
-3.020748389999999927e+04
-3.020707909999999902e+04
-3.020714519999999902e+04
-3.020413009999999849e+04
-3.020660139999999956e+04
-3.020695179999999891e+04
-3.020686609999999928e+04
-3.020498530000000028e+04
-3.020733069999999861e+04
-3.020171860000000015e+04
-3.020671069999999963e+04
-3.020565940000000046e+04
-3.020620230000000083e+04
-3.020675849999999991e+04
-3.020606580000000031e+04
-3.020613739999999962e+04
-3.020520140000000174e+04
-3.020658429999999862e+04
-3.021109539999999834e+04
-3.020526900000000023e+04
-3.020815950000000157e+04
-3.020610290000000168e+04
-3.020324369999999908e+04
-3.020906019999999990e+04
-3.020932059999999910e+04
-3.020148110000000088e+04
-3.020624599999999919e+04
-3.020468149999999878e+04
-3.020236750000000029e+04
-3.020890330000000176e+04
-3.020706000000000131e+04
-3.020994359999999870e+04
-3.020632779999999912e+04
-3.020450189999999930e+04
-3.020442180000000008e+04
-3.020032830000000104e+04
-3.020643679999999949e+04
-3.020179680000000008e+04
-3.020783740000000034e+04
-3.020600560000000041e+04
-3.020276080000000002e+04
-3.020461209999999846e+04
-3.020337989999999991e+04
-3.020911339999999836e+04
-3.020500560000000041e+04
-3.020498119999999835e+04
-3.020790620000000126e+04
-3.020685389999999825e+04
-3.020527059999999983e+04
-3.020115999999999985e+04
-3.020641790000000037e+04
-3.020604799999999886e+04
-3.020450960000000123e+04
-3.020889909999999873e+04
-3.020725849999999991e+04
-3.020368739999999889e+04
-3.020526299999999901e+04
-3.020732619999999952e+04
-3.020091470000000118e+04
-3.020268630000000121e+04
-3.020450340000000142e+04
-3.020510629999999946e+04
-3.020200999999999840e+04
-3.020296180000000095e+04
-3.020460740000000078e+04
-3.020580710000000181e+04
-3.021052430000000095e+04
-3.020661219999999958e+04
-3.020565780000000086e+04
-3.020290330000000176e+04
-3.020563469999999870e+04
-3.020549269999999888e+04
-3.020342160000000149e+04
-3.020736010000000169e+04
-3.020706869999999981e+04
-3.020445360000000073e+04
-3.020442169999999896e+04
-3.020684340000000157e+04
-3.020022230000000127e+04
-3.020585269999999946e+04
-3.020466210000000137e+04
-3.020564960000000065e+04
-3.021100549999999930e+04
-3.020831629999999859e+04
-3.020768059999999969e+04
-3.020494580000000133e+04
-3.021102969999999914e+04
-3.020650899999999820e+04
-3.020653510000000097e+04
-3.020422580000000016e+04
-3.020862189999999828e+04
-3.020987129999999888e+04
-3.020607990000000063e+04
-3.020542640000000029e+04
-3.020320569999999861e+04
-3.020575379999999859e+04
-3.020413680000000022e+04
-3.020437020000000120e+04
-3.020718570000000182e+04
-3.020546979999999894e+04
-3.020098719999999958e+04
-3.020530419999999867e+04
-3.020645200000000114e+04
-3.020368509999999878e+04
-3.020414440000000104e+04
-3.020502010000000155e+04
-3.020662949999999910e+04
-3.020352140000000145e+04
-3.020550310000000172e+04
-3.020415190000000075e+04
-3.020679260000000068e+04
-3.020673249999999825e+04
-3.020660840000000098e+04
-3.020514349999999831e+04
-3.021140160000000105e+04
-3.020743330000000060e+04
-3.020734860000000117e+04
-3.020230159999999887e+04
-3.020756190000000061e+04
-3.020057560000000012e+04
-3.020798979999999938e+04
-3.020462559999999939e+04
-3.020729669999999896e+04
-3.020416779999999926e+04
-3.020740639999999985e+04
-3.020886709999999948e+04
-3.020336880000000019e+04
-3.020592030000000159e+04
-3.020733899999999994e+04
-3.020225059999999939e+04
-3.020572859999999855e+04
-3.020513850000000093e+04
-3.020683919999999853e+04
-3.020847739999999976e+04
-3.020896700000000055e+04
-3.020721549999999843e+04
-3.020351199999999881e+04
-3.020736109999999826e+04
-3.020581200000000172e+04
-3.020858429999999862e+04
-3.020346730000000025e+04
-3.020763119999999981e+04
-3.019904420000000027e+04
-3.020393149999999878e+04
-3.021024499999999898e+04
-3.020221470000000045e+04
-3.020474339999999938e+04
-3.020314839999999822e+04
-3.020391749999999956e+04
-3.020608469999999943e+04
-3.020453069999999934e+04
-3.020200890000000072e+04
-3.020443600000000151e+04
-3.020469830000000002e+04
-3.020489619999999923e+04
-3.020278299999999945e+04
-3.020368999999999869e+04
-3.020836119999999937e+04
-3.020307040000000052e+04
-3.020279539999999906e+04
-3.020076989999999932e+04
-3.020847279999999955e+04
-3.020528499999999985e+04
-3.020549130000000150e+04
-3.020419169999999940e+04
-3.020862710000000152e+04
-3.020629170000000158e+04
-3.020521840000000157e+04
-3.020586860000000161e+04
-3.020706929999999920e+04
-3.020685060000000158e+04
-3.020856580000000031e+04
-3.020805649999999878e+04
-3.020792429999999877e+04
-3.020404449999999997e+04
-3.020277300000000105e+04
-3.020676259999999820e+04
-3.020597609999999986e+04
-3.020935499999999956e+04
-3.020684530000000086e+04
-3.020539270000000033e+04
-3.020330270000000019e+04
-3.020494180000000051e+04
-3.020464849999999933e+04
-3.020682440000000133e+04
-3.020197290000000066e+04
-3.020749689999999828e+04
-3.020473649999999907e+04
-3.020889380000000165e+04
-3.020758490000000165e+04
-3.020663590000000113e+04
-3.020615859999999884e+04
-3.020455919999999969e+04
-3.020434570000000167e+04
-3.020620739999999932e+04
-3.020579400000000169e+04
-3.020720420000000013e+04
-3.020937240000000020e+04
-3.020720339999999851e+04
-3.020335220000000118e+04
-3.020277119999999923e+04
-3.020568430000000080e+04
-3.020724390000000130e+04
-3.020682099999999991e+04
-3.020606759999999849e+04
-3.020808529999999882e+04
-3.020748930000000109e+04
-3.020617130000000179e+04
-3.020683989999999903e+04
-3.020366630000000077e+04
-3.020648890000000029e+04
-3.020233529999999882e+04
-3.020660129999999845e+04
-3.020412759999999980e+04
-3.020520360000000073e+04
-3.021012189999999828e+04
-3.020495620000000054e+04
-3.021010489999999845e+04
-3.020591189999999915e+04
-3.020432170000000042e+04
-3.020429660000000149e+04
-3.020325300000000061e+04
-3.020499620000000141e+04
-3.020438369999999850e+04
-3.020773589999999967e+04
-3.020257540000000154e+04
-3.020501910000000134e+04
-3.020440460000000166e+04
-3.020468240000000151e+04
-3.020711960000000181e+04
-3.020602600000000166e+04
-3.020912229999999909e+04
-3.020669970000000103e+04
-3.020662440000000061e+04
-3.020551259999999820e+04
-3.020984019999999873e+04
-3.020419550000000163e+04
-3.020925670000000173e+04
-3.020547859999999855e+04
-3.020394210000000021e+04
-3.020520739999999932e+04
-3.020661650000000009e+04
-3.020859909999999945e+04
-3.020467079999999987e+04
-3.020766730000000098e+04
-3.020394090000000142e+04
-3.020762989999999991e+04
-3.020529149999999936e+04
-3.020676880000000165e+04
-3.021016939999999886e+04
-3.020711339999999836e+04
-3.020772980000000098e+04
-3.020782500000000073e+04
-3.020356550000000061e+04
-3.020658039999999892e+04
-3.020443409999999858e+04
-3.020891430000000037e+04
-3.020105689999999959e+04
-3.020862310000000070e+04
-3.020794979999999850e+04
-3.020813999999999942e+04
-3.020530949999999939e+04
-3.020385169999999925e+04
-3.020385699999999997e+04
-3.020970809999999983e+04
-3.020685469999999987e+04
-3.020827490000000034e+04
-3.020093360000000030e+04
-3.020689610000000175e+04
-3.020785180000000037e+04
-3.020620009999999820e+04
-3.020400939999999900e+04
-3.020489979999999923e+04
-3.020654739999999947e+04
-3.020528779999999824e+04
-3.020641820000000007e+04
-3.020303570000000036e+04
-3.020369619999999850e+04
-3.020234270000000106e+04
-3.020634879999999976e+04
-3.020678970000000118e+04
-3.020772409999999945e+04
-3.020304560000000129e+04
-3.020443790000000081e+04
-3.020132530000000042e+04
-3.020089140000000043e+04
-3.020534760000000097e+04
-3.020655140000000029e+04
-3.020549699999999939e+04
-3.020593079999999827e+04
-3.020291029999999955e+04
-3.020686880000000019e+04
-3.020250000000000000e+04
-3.020926510000000053e+04
-3.020694110000000001e+04
-3.020997430000000168e+04
-3.020630199999999968e+04
-3.020785629999999946e+04
-3.020452349999999933e+04
-3.020545290000000023e+04
-3.020318490000000020e+04
-3.020979539999999906e+04
-3.020477649999999994e+04
-3.020921480000000156e+04
-3.020547239999999874e+04
-3.020499130000000150e+04
-3.020551619999999821e+04
-3.020457719999999972e+04
-3.020909739999999874e+04
-3.020522999999999956e+04
-3.020567840000000069e+04
-3.020353580000000147e+04
-3.020266359999999986e+04
-3.020468070000000080e+04
-3.021092329999999856e+04
-3.020599469999999928e+04
-3.020627990000000136e+04
-3.020087930000000051e+04
-3.020512749999999869e+04
-3.020389129999999932e+04
-3.020795739999999932e+04
-3.020510459999999875e+04
-3.020589619999999923e+04
-3.020555960000000050e+04
-3.020531320000000051e+04
-3.020527709999999934e+04
-3.020662649999999849e+04
-3.020620219999999972e+04
-3.020375270000000091e+04
-3.020880849999999919e+04
-3.020642459999999846e+04
-3.020567030000000159e+04
-3.020080840000000171e+04
-3.020361170000000129e+04
-3.020154859999999826e+04
-3.020635169999999925e+04
-3.020582890000000043e+04
-3.020712259999999878e+04
-3.020488279999999941e+04
-3.021083710000000065e+04
-3.020763390000000072e+04
-3.020750129999999990e+04
-3.020884720000000016e+04
-3.020861980000000040e+04
-3.020922940000000017e+04
-3.020627929999999833e+04
-3.020514979999999923e+04
-3.020352189999999973e+04
-3.020494979999999850e+04
-3.020281399999999849e+04
-3.020725809999999910e+04
-3.020251229999999850e+04
-3.020417740000000049e+04
-3.020003110000000015e+04
-3.020916110000000117e+04
-3.020308499999999913e+04
-3.020341979999999967e+04
-3.020799950000000172e+04
-3.020527500000000146e+04
-3.020832960000000094e+04
-3.020654880000000048e+04
-3.020617589999999836e+04
-3.020603970000000118e+04
-3.020241979999999967e+04
-3.020749190000000090e+04
-3.020452769999999873e+04
-3.020580080000000089e+04
-3.020918750000000000e+04
-3.020823449999999866e+04
-3.020871259999999893e+04
-3.020626670000000013e+04
-3.020602070000000094e+04
-3.020184449999999924e+04
-3.020877170000000115e+04
-3.020674580000000060e+04
-3.020651429999999891e+04
-3.020680919999999969e+04
-3.020890330000000176e+04
-3.020706369999999879e+04
-3.020631999999999971e+04
-3.021063580000000002e+04
-3.020718630000000121e+04
-3.020384360000000015e+04
-3.020580080000000089e+04
-3.020665179999999964e+04
-3.020340109999999913e+04
-3.020623489999999947e+04
-3.020615639999999985e+04
-3.020610589999999866e+04
-3.020640000000000146e+04
-3.020510329999999885e+04
-3.020885699999999997e+04
-3.020523059999999896e+04
-3.020448860000000059e+04
-3.020824919999999838e+04
-3.020674780000000101e+04
-3.020845319999999992e+04
-3.020321670000000086e+04
-3.020108850000000166e+04
-3.020335469999999987e+04
-3.020358299999999872e+04
-3.020284059999999954e+04
-3.020657830000000104e+04
-3.020660310000000027e+04
-3.020800739999999860e+04
-3.020501829999999973e+04
-3.020291879999999946e+04
-3.020350969999999870e+04
-3.020325170000000071e+04
-3.020917610000000059e+04
-3.020388769999999931e+04
-3.020889449999999852e+04
-3.020555519999999888e+04
-3.020717949999999837e+04
-3.020665120000000024e+04
-3.020909110000000146e+04
-3.020491349999999875e+04
-3.020138439999999900e+04
-3.021062250000000131e+04
-3.020643119999999908e+04
-3.020350219999999899e+04
-3.020144139999999970e+04
-3.020118170000000100e+04
-3.020390339999999924e+04
-3.020667280000000028e+04
-3.020570019999999931e+04
-3.021017759999999907e+04
-3.020479550000000017e+04
-3.020592919999999867e+04
-3.020522499999999854e+04
-3.020510959999999977e+04
-3.020693019999999888e+04
-3.020524799999999959e+04
-3.020592020000000048e+04
-3.020456729999999880e+04
-3.020622669999999925e+04
-3.020528299999999945e+04
-3.020362380000000121e+04
-3.020764939999999842e+04
-3.020669879999999830e+04
-3.020642559999999867e+04
-3.020384899999999834e+04
-3.020897190000000046e+04
-3.020638920000000144e+04
-3.020705689999999959e+04
-3.020766549999999916e+04
-3.020290580000000045e+04
-3.020416979999999967e+04
-3.020491149999999834e+04
-3.019955419999999867e+04
-3.020786760000000140e+04
-3.020506360000000132e+04
-3.020227539999999863e+04
-3.020899199999999837e+04
-3.020849789999999848e+04
-3.020015239999999903e+04
-3.020641849999999977e+04
-3.020609259999999995e+04
-3.020550830000000133e+04
-3.020268790000000081e+04
-3.020125100000000020e+04
-3.020610919999999896e+04
-3.020769190000000162e+04
-3.020480670000000100e+04
-3.020133120000000054e+04
-3.020737310000000070e+04
-3.020379910000000018e+04
-3.020344420000000173e+04
-3.020339440000000104e+04
-3.020806759999999849e+04
-3.020230649999999878e+04
-3.020353529999999955e+04
-3.020559749999999985e+04
-3.020651520000000164e+04
-3.020455359999999928e+04
-3.020400790000000052e+04
-3.020720349999999962e+04
-3.020648900000000140e+04
-3.021055150000000140e+04
-3.020964649999999892e+04
-3.020849220000000059e+04
-3.020461079999999856e+04
-3.020433699999999953e+04
-3.020501459999999861e+04
-3.020442390000000159e+04
-3.020222239999999874e+04
-3.020524740000000020e+04
-3.020541140000000087e+04
-3.020497520000000077e+04
-3.020690279999999984e+04
-3.020188090000000011e+04
-3.020607570000000123e+04
-3.020708929999999964e+04
-3.020258039999999892e+04
-3.020583669999999984e+04
-3.020695260000000053e+04
-3.020666219999999885e+04
-3.020505640000000130e+04
-3.020670260000000053e+04
-3.020815060000000085e+04
-3.020158429999999862e+04
-3.020874910000000091e+04
-3.020550240000000122e+04
-3.020381439999999930e+04
-3.020884969999999885e+04
-3.020530219999999827e+04
-3.020222820000000138e+04
-3.020528380000000107e+04
-3.020556880000000092e+04
-3.020691419999999925e+04
-3.020532089999999880e+04
-3.020480069999999978e+04
-3.020640409999999974e+04
-3.020451269999999931e+04
-3.020332140000000072e+04
-3.020247790000000168e+04
-3.020579030000000057e+04
-3.020602279999999882e+04
-3.020700909999999931e+04
-3.020366219999999885e+04
-3.020449859999999899e+04
-3.020387559999999939e+04
-3.020744280000000072e+04
-3.020789479999999821e+04
-3.020646719999999914e+04
-3.020446299999999974e+04
-3.020786880000000019e+04
-3.020949329999999827e+04
-3.020550470000000132e+04
-3.020629469999999856e+04
-3.020415590000000157e+04
-3.020722019999999975e+04
-3.020449940000000061e+04
-3.020239110000000073e+04
-3.020439679999999862e+04
-3.020459820000000036e+04
-3.020445140000000174e+04
-3.020422759999999835e+04
-3.020542039999999906e+04
-3.020294250000000102e+04
-3.020568760000000111e+04
-3.020577370000000155e+04
-3.020737269999999990e+04
-3.020897750000000087e+04
-3.020502579999999944e+04
-3.020378989999999976e+04
-3.020774279999999999e+04
-3.020233810000000085e+04
-3.020993769999999859e+04
-3.020260749999999825e+04
-3.020535619999999835e+04
-3.020705979999999909e+04
-3.020937459999999919e+04
-3.020732800000000134e+04
-3.020457289999999921e+04
-3.020693860000000132e+04
-3.020666479999999865e+04
-3.020766619999999966e+04
-3.020478050000000076e+04
-3.020796489999999903e+04
-3.020928789999999935e+04
-3.020565889999999854e+04
-3.020576350000000093e+04
-3.020566619999999966e+04
-3.020867970000000059e+04
-3.020563409999999931e+04
-3.020530640000000130e+04
-3.020800360000000001e+04
-3.020725749999999971e+04
-3.020846210000000065e+04
-3.020490109999999913e+04
-3.020558410000000003e+04
-3.020183109999999942e+04
-3.020421990000000005e+04
-3.020783529999999882e+04
-3.020953369999999995e+04
-3.020555429999999978e+04
-3.020462250000000131e+04
-3.020823839999999836e+04
-3.020896529999999984e+04
-3.020427609999999913e+04
-3.020627309999999852e+04
-3.020114559999999983e+04
-3.020117840000000069e+04
-3.020315799999999945e+04
-3.020313780000000042e+04
-3.020022550000000047e+04
-3.020706980000000112e+04
-3.020888560000000143e+04
-3.020463330000000133e+04
-3.020631820000000153e+04
-3.021150460000000021e+04
-3.020461270000000150e+04
-3.020887879999999859e+04
-3.020073549999999886e+04
-3.020501859999999942e+04
-3.020901090000000113e+04
-3.020294120000000112e+04
-3.020652969999999914e+04
-3.020407349999999860e+04
-3.020440149999999994e+04
-3.020453410000000076e+04
-3.020706950000000143e+04
-3.020722000000000116e+04
-3.020616389999999956e+04
-3.020849970000000030e+04
-3.020658699999999953e+04
-3.020704330000000118e+04
-3.020467889999999898e+04
-3.020456030000000101e+04
-3.021005819999999949e+04
-3.020799120000000039e+04
-3.020253689999999915e+04
-3.020655610000000161e+04
-3.020677990000000136e+04
-3.020701039999999921e+04
-3.020583390000000145e+04
-3.020444420000000173e+04
-3.020431509999999980e+04
-3.020077130000000034e+04
-3.020389740000000165e+04
-3.020789310000000114e+04
-3.020610190000000148e+04
-3.020647049999999945e+04
-3.020671129999999903e+04
-3.020447290000000066e+04
-3.020850479999999880e+04
-3.020589080000000104e+04
-3.020286860000000161e+04
-3.020556439999999930e+04
-3.020663439999999900e+04
-3.019880319999999847e+04
-3.020889819999999963e+04
-3.020154049999999916e+04
-3.020744269999999960e+04
-3.020357040000000052e+04
-3.020178289999999834e+04
-3.020167050000000017e+04
-3.020667789999999877e+04
-3.020555519999999888e+04
-3.020748380000000179e+04
-3.020695650000000023e+04
-3.020498389999999927e+04
-3.020733090000000084e+04
-3.020929990000000180e+04
-3.020719310000000041e+04
-3.020618110000000161e+04
-3.021027349999999933e+04
-3.020147950000000128e+04
-3.020913300000000163e+04
-3.020322479999999996e+04
-3.020728199999999924e+04
-3.020608640000000014e+04
-3.020229799999999886e+04
-3.020969700000000012e+04
-3.020592699999999968e+04
-3.020837289999999848e+04
-3.020670349999999962e+04
-3.020609720000000016e+04
-3.020737740000000122e+04
-3.020717209999999977e+04
-3.020800159999999960e+04
-3.020680210000000079e+04
-3.020841330000000016e+04
-3.020737440000000061e+04
-3.020692229999999836e+04
-3.020523800000000119e+04
-3.020759690000000046e+04
-3.020815710000000036e+04
-3.020243519999999990e+04
-3.021101979999999821e+04
-3.020517940000000090e+04
-3.020630800000000090e+04
-3.020438499999999840e+04
-3.020525049999999828e+04
-3.020877400000000125e+04
-3.020547130000000107e+04
-3.020268479999999909e+04
-3.020414189999999871e+04
-3.020265780000000086e+04
-3.020661769999999888e+04
-3.020914029999999912e+04
-3.020658569999999963e+04
-3.020633299999999872e+04
-3.020157589999999982e+04
-3.020820270000000164e+04
-3.020625720000000001e+04
-3.020489870000000155e+04
-3.020451220000000103e+04
-3.020475739999999860e+04
-3.020920089999999982e+04
-3.020629829999999856e+04
-3.020361290000000008e+04
-3.020591679999999906e+04
-3.020165710000000036e+04
-3.020599139999999898e+04
-3.020604060000000027e+04
-3.020733569999999963e+04
-3.020359990000000107e+04
-3.020725389999999970e+04
-3.021046840000000157e+04
-3.020792770000000019e+04
-3.020676529999999912e+04
-3.020202240000000165e+04
-3.020801440000000002e+04
-3.020740929999999935e+04
-3.020258929999999964e+04
-3.020587029999999868e+04
-3.020693860000000132e+04
-3.020437240000000020e+04
-3.020581239999999889e+04
-3.020802079999999842e+04
-3.020816379999999845e+04
-3.020700310000000172e+04
-3.020296649999999863e+04
-3.020525639999999839e+04
-3.020188039999999819e+04
-3.020135369999999966e+04
-3.020320070000000123e+04
-3.020767459999999846e+04
-3.020524279999999999e+04
-3.020524650000000111e+04
-3.020189770000000135e+04
-3.020202779999999984e+04
-3.020826169999999911e+04
-3.020715030000000115e+04
-3.020519570000000022e+04
-3.020976420000000144e+04
-3.020540060000000085e+04
-3.020681669999999940e+04
-3.020589479999999821e+04
-3.020774929999999949e+04
-3.020467729999999938e+04
-3.020609920000000056e+04
-3.020628940000000148e+04
-3.020577569999999832e+04
-3.020381620000000112e+04
-3.020797790000000168e+04
-3.020696059999999852e+04
-3.020754339999999866e+04
-3.020994259999999849e+04
-3.020372980000000098e+04
-3.020524559999999838e+04
-3.020307630000000063e+04
-3.020392599999999948e+04
-3.020026979999999821e+04
-3.020428989999999976e+04
-3.020214020000000164e+04
-3.020731590000000142e+04
-3.020760640000000058e+04
-3.020444749999999840e+04
-3.020548879999999917e+04
-3.020600649999999951e+04
-3.020831799999999930e+04
-3.020970209999999861e+04
-3.020364189999999871e+04
-3.020477149999999892e+04
-3.020796900000000096e+04
-3.020274209999999948e+04
-3.020413279999999941e+04
-3.020567390000000159e+04
-3.020368500000000131e+04
-3.020624450000000070e+04
-3.020006009999999878e+04
-3.020421500000000015e+04
-3.020719919999999911e+04
-3.020424429999999847e+04
-3.020838209999999890e+04
-3.020607359999999971e+04
-3.020835970000000088e+04
-3.020535930000000008e+04
-3.020646700000000055e+04
-3.020112250000000131e+04
-3.020459630000000107e+04
-3.020562120000000141e+04
-3.020340339999999924e+04
-3.020506250000000000e+04
-3.020834969999999885e+04
-3.020316119999999864e+04
-3.020398849999999948e+04
-3.020225999999999840e+04
-3.020395560000000114e+04
-3.020971220000000176e+04
-3.020370550000000003e+04
-3.020338469999999870e+04
-3.020553310000000056e+04
-3.020689719999999943e+04
-3.020671990000000005e+04
-3.020325609999999870e+04
-3.020392740000000049e+04
-3.020683329999999842e+04
-3.020701900000000023e+04
-3.020832879999999932e+04
-3.020435599999999977e+04
-3.020762849999999889e+04
-3.020569039999999950e+04
-3.020331989999999860e+04
-3.020653440000000046e+04
-3.020397969999999987e+04
-3.020693620000000010e+04
-3.020653659999999945e+04
-3.020243119999999908e+04
-3.020566770000000179e+04
-3.020726819999999861e+04
-3.020714979999999923e+04
-3.020685129999999845e+04
-3.020448419999999896e+04
-3.020652100000000064e+04
-3.020702630000000136e+04
-3.020615090000000055e+04
-3.020700089999999909e+04
-3.020097880000000077e+04
-3.020245669999999882e+04
-3.020771789999999964e+04
-3.020091489999999976e+04
-3.020814429999999993e+04
-3.020538239999999860e+04
-3.020355270000000019e+04
-3.020632489999999962e+04
-3.020251120000000083e+04
-3.021071640000000116e+04
-3.020746069999999963e+04
-3.020670490000000063e+04
-3.020820279999999912e+04
-3.020583490000000165e+04
-3.020422260000000097e+04
-3.020615740000000005e+04
-3.020765680000000066e+04
-3.020738260000000082e+04
-3.021166489999999976e+04
-3.020297599999999875e+04
-3.020206899999999951e+04
-3.020503770000000077e+04
-3.020784249999999884e+04
-3.020241930000000139e+04
-3.020714640000000145e+04
-3.020404709999999977e+04
-3.020658380000000034e+04
-3.020936750000000029e+04
-3.020678619999999864e+04
-3.020834349999999904e+04
-3.020314919999999984e+04
-3.020279290000000037e+04
-3.020654049999999916e+04
-3.021036319999999978e+04
-3.020693019999999888e+04
-3.020564740000000165e+04
-3.020334349999999904e+04
-3.020631850000000122e+04
-3.020937940000000162e+04
-3.020413520000000062e+04
-3.020075899999999820e+04
-3.020419150000000081e+04
-3.020793960000000152e+04
-3.020419719999999870e+04
-3.020788469999999870e+04
-3.020665299999999843e+04
-3.020836349999999948e+04
-3.020505510000000140e+04
-3.020464300000000003e+04
-3.020666019999999844e+04
-3.020593869999999879e+04
-3.020444580000000133e+04
-3.020140740000000005e+04
-3.020576099999999860e+04
-3.020597479999999996e+04
-3.020241770000000179e+04
-3.020906810000000041e+04
-3.020145330000000104e+04
-3.019844150000000081e+04
-3.020472190000000046e+04
-3.020803870000000097e+04
-3.020275300000000061e+04
-3.020712189999999828e+04
-3.020457379999999830e+04
-3.020612970000000132e+04
-3.020518140000000130e+04
-3.020267919999999867e+04
-3.020798540000000139e+04
-3.020865199999999822e+04
-3.020749450000000070e+04
-3.020575200000000041e+04
-3.020798900000000140e+04
-3.020236730000000171e+04
-3.021015680000000066e+04
-3.020319610000000102e+04
-3.020416449999999895e+04
-3.020571659999999974e+04
-3.020700579999999900e+04
-3.020821370000000024e+04
-3.020308000000000175e+04
-3.020716100000000006e+04
-3.020664600000000064e+04
-3.020725769999999829e+04
-3.020451750000000175e+04
-3.020612380000000121e+04
-3.020544659999999931e+04
-3.020498470000000088e+04
-3.020542870000000039e+04
-3.020847620000000097e+04
-3.020722539999999935e+04
-3.020815429999999833e+04
-3.020412039999999979e+04
-3.020563369999999850e+04
-3.020836460000000079e+04
-3.020411609999999928e+04
-3.020166670000000158e+04
-3.020373670000000129e+04
-3.020288179999999920e+04
-3.020337510000000111e+04
-3.020701150000000052e+04
-3.020487700000000041e+04
-3.020702869999999893e+04
-3.020408380000000034e+04
-3.020642889999999898e+04
-3.020492090000000098e+04
-3.020823749999999927e+04
-3.020299299999999857e+04
-3.020703700000000026e+04
-3.020536390000000029e+04
-3.020454270000000179e+04
-3.020470509999999922e+04
-3.020239170000000013e+04
