-4.380556772966404111e+01 6.482457796608006362e+00 -3.369659056128003094e+00 6.482457796608006362e+00 -4.001361290035203666e+01 -8.010558996480007243e-01 -3.369659056128003094e+00 -8.010558996480007243e-01 -4.532931536486403701e+01
-1.451260783411201416e+01 1.284301578240001351e+00 7.094133633024006791e+00 1.284301578240001351e+00 -4.213379889561604585e+01 -1.358312177664001252e+00 7.094133633024006791e+00 -1.358312177664001252e+00 -5.089752458035204796e+01
-2.278220392857602050e+01 -5.302641770496004270e+00 -1.199624745369601264e+01 -5.302641770496004270e+00 -6.905188926259206994e+01 -2.644790538240002320e+00 -1.199624745369601264e+01 -2.646967320576002702e+00 -3.340707851059202937e+01
-3.348761945702403153e+01 -8.276126441472007045e+00 6.573882654720006435e+00 -8.276126441472007045e+00 -6.466349607321606641e+01 2.971307888640002393e+00 6.573882654720006435e+00 2.971307888640002393e+00 -4.452390590054404385e+01
-4.242548772864004114e+00 -5.259106123776005504e+00 1.391834625638401413e+01 -5.259106123776005504e+00 -4.618043725824004753e+01 1.112771130163201150e+01 1.391834625638401413e+01 1.112553451929601067e+01 -5.936520786739205846e+01
-3.769751649484803835e+01 -1.797586853068801460e+01 5.777180319744005921e+00 -1.797369174835201733e+01 -4.082990627635203396e+01 1.781696342016001466e+01 5.777180319744005921e+00 1.781696342016001466e+01 -2.346353679974402340e+01
-4.808512180224003885e+01 -5.681401896960005526e-01 -9.249148145664008780e+00 -5.681401896960005526e-01 -5.118050628403204882e+01 -9.521245937664009062e+00 -9.249148145664008780e+00 -9.521245937664009062e+00 -5.818974540595205269e+01
-1.694407370342401720e+01 3.302178803712002786e+00 -6.475927449600006547e+00 3.302178803712002786e+00 -3.941499775795203675e+01 -2.160238790246402019e+01 -6.475927449600006547e+00 -2.160238790246402019e+01 -3.197693251584002994e+01
-2.894902828646402781e+01 -1.850264985600001921e+01 8.069332119552006688e+00 -1.850264985600001921e+01 -6.459383903846405417e+01 -2.734038614016002455e+00 8.069332119552006688e+00 -2.734038614016002455e+00 -6.178796660736006174e+01
-2.188101604147201940e+01 1.530277982208001397e+01 3.587337289728003142e+00 1.530277982208001397e+01 -2.477613654835202084e+01 3.582983725056003266e+00 3.587337289728003142e+00 3.582983725056003266e+00 -2.885324986368002698e+01
1.367672341708801298e+01 -7.124608585728005927e+00 -2.385753440256002111e+00 -7.124608585728005927e+00 -2.694203497267202607e+01 -1.510904619417601502e+01 -2.385753440256002111e+00 -1.510904619417601502e+01 -2.979797339750402685e+01
-1.463668442726401331e+01 -2.411874828288002259e+00 4.769330098176004284e+00 -2.411874828288002259e+00 -2.012435269632001678e+01 -1.516999609958401507e+01 4.769330098176004284e+00 -1.516999609958401507e+01 -1.458008808652801314e+01
-1.420350474240001404e+01 -1.963457667072001867e+00 1.284301578240001074e-01 -1.963457667072001867e+00 -4.133274299596804013e+01 6.539054137344006534e+00 1.284301578240001074e-01 6.539054137344006534e+00 -2.500034512896002425e+01
-3.121288191590402761e+01 5.914317606912004699e+00 -1.089479559168001011e+01 5.914317606912004699e+00 -1.340897918976001257e+01 -8.273949659136007995e+00 -1.089697237401601093e+01 -8.273949659136007995e+00 -1.998068506214401907e+01
-1.713780733132801615e+01 -7.181204926464006100e+00 -1.582520758272001560e+00 -7.181204926464006100e+00 -5.311348899840005089e+01 -1.027876619059200891e+01 -1.582520758272001560e+00 -1.027876619059200891e+01 -1.499367673036801385e+01
-3.792172507545603111e+01 1.118866120704000977e+01 -2.024407572480001605e+01 1.118866120704000977e+01 -1.056610145894400965e+01 -9.273092751360009212e-01 -2.024407572480001605e+01 -9.273092751360009212e-01 -1.211379369984001109e+01
-1.731848026521601369e+01 2.398814134272002363e+01 -1.326095799091201322e+01 2.398814134272002363e+01 -1.276029805363201142e+01 -2.535951421440002296e+00 -1.326095799091201322e+01 -2.535951421440002296e+00 -9.375401521152008755e+00
-2.297376077414401863e+01 -5.942615777280005895e-01 1.484565553152001449e+00 -5.942615777280005895e-01 -3.360734248550402725e+01 -1.062487458201600887e+01 1.484565553152001449e+00 -1.062487458201600887e+01 -3.839191006003203910e+01
-2.703128304844802443e+01 6.077576282112006290e+00 6.543407702016006411e+00 6.077576282112006290e+00 -9.377578303488009581e+00 1.525271382835201450e+01 6.543407702016006411e+00 1.525271382835201450e+01 -3.843544570675203431e+01
-3.650899333939203473e+01 4.116295397376004139e+00 1.501979811840001400e+00 4.116295397376004139e+00 -2.092323181363202167e+01 4.875992432640004481e-01 1.501979811840001400e+00 4.875992432640004481e-01 -5.209040130048004613e+01
-3.539665756569603872e+01 -1.821966815232001657e+00 -1.007850221568000970e+00 -1.821966815232001657e+00 -1.337197389004801273e+01 1.078595647488000964e+01 -1.010027003904000908e+00 1.078595647488000964e+01 -4.318736154624004620e+00
-3.358992822681603485e+01 -5.076256407552004468e+00 1.284519256473601168e+01 -5.076256407552004468e+00 7.827709280256007318e+00 9.048884170752009126e+00 1.284519256473601168e+01 9.048884170752009126e+00 -2.995252494336002869e+01
-8.400203034624007969e+00 1.698760935014401596e+01 -1.737072304128001576e+01 1.698760935014401596e+01 -2.687673150259202615e+01 -5.232984735744004468e+00 -1.737072304128001576e+01 -5.230807953408005417e+00 -2.659157301657602446e+01
-1.578167193600001639e+01 2.398814134272002185e+00 -7.192088838144006679e+00 2.398814134272002185e+00 -1.933418070835201519e+01 -6.110228017152005364e+00 -7.192088838144006679e+00 -6.110228017152005364e+00 -3.201829138022402788e+01
-2.906222096793602816e+01 4.658314199040003878e+00 -1.584697540608001498e+00 4.658314199040003878e+00 -4.011156810547203833e+01 -1.881828329472001826e+01 -1.584697540608001498e+00 -1.881828329472001826e+01 -5.513354300620805049e+01
-3.143491371417603020e+01 -1.175462461440001150e+01 -2.430159799910402185e+01 -1.175462461440001150e+01 -2.606261490892802257e+01 -7.505545494528007566e+00 -2.430159799910402185e+01 -7.503368712192006740e+00 -2.288233591603202299e+01
-1.482171092582401428e+01 -5.080609972224005233e+00 -8.086746378240007971e+00 -5.080609972224005233e+00 -1.213338474086401142e+01 -3.996572368896003535e+00 -8.086746378240007971e+00 -3.996572368896003535e+00 -2.651756241715202478e+01
-4.021170009292803371e+01 2.037468266496001945e+01 -9.283976663040007793e+00 2.037468266496001945e+01 -2.530727143833602355e+01 -5.833776660480005205e+00 -9.281799880704008743e+00 -5.833776660480005205e+00 -8.298329621299208725e+01
-2.800648153497602877e+01 -8.430677987328008882e+00 5.798948143104005304e+00 -8.430677987328008882e+00 -1.993279585075201865e+01 -4.212073820160004090e+00 5.798948143104005304e+00 -4.212073820160004090e+00 -3.702053718835203711e+01
-3.606492974284802955e+01 8.881271930880008103e-01 -4.638723158016004433e+00 8.881271930880008103e-01 -2.038338979430401920e+01 -9.040177041408007597e+00 -4.640899940352004371e+00 -9.040177041408007597e+00 -3.031387081113602733e+01
-4.607159814144004173e+01 2.760813036748802674e+01 3.609105113088003414e+00 2.760813036748802674e+01 -3.372488873164802925e+01 -1.651742436556801508e+01 3.609105113088003414e+00 -1.651742436556801508e+01 -6.235610679705606429e+01
-3.067303989657602870e+01 5.348354199552004751e+00 -4.906467385344004839e+00 5.348354199552004751e+00 -2.399902525440002421e+01 -1.057698537062400845e+01 -4.906467385344004839e+00 -1.057698537062400845e+01 -3.201393781555202622e+01
-2.222277086822401770e+01 -3.149586361958402847e+01 -1.097098297344001105e+00 -3.149586361958402847e+01 -2.415793036492802415e+01 -3.328300191744002934e+00 -1.097098297344001105e+00 -3.328300191744002934e+00 -3.580589264486403067e+01
-4.901896142438404524e+01 1.512863723520001313e+00 1.670680442880001593e+01 1.512863723520001313e+00 -3.284111510323202765e+01 -1.107329174323201038e+01 1.670680442880001593e+01 -1.107546852556800943e+01 -3.127818538598402753e+01
-1.264710537216001107e+01 -4.227311296512003658e+00 -1.054868720025600837e+01 -4.227311296512003658e+00 -3.537053617766402880e+01 1.954750537728001891e+00 -1.054868720025600837e+01 1.954750537728001891e+00 -3.736011523276803814e+01
-5.918671171584005464e+00 2.326980317184002089e+01 9.347103350784008668e+00 2.326980317184002089e+01 -2.322844430745602295e+01 4.394923536384004237e+00 9.347103350784008668e+00 4.394923536384004237e+00 9.954425622528008333e+00
-4.737549076070403942e+01 1.467368972697601315e+01 6.900400005120006508e-01 1.467151294464001410e+01 -1.909908821606401830e+01 -6.260425998336006437e+00 6.878632181760006015e-01 -6.260425998336006437e+00 -3.352680153907203220e+01
-4.215992028364804156e+01 6.645716471808006176e+00 -1.539638146252801576e+01 6.645716471808006176e+00 -3.800879636889603574e+01 -8.700598996992006562e+00 -1.539638146252801576e+01 -8.700598996992006562e+00 -5.008340798668805149e+01
-5.218182615859205242e+01 1.740772834099201916e+01 -6.665307512832006509e+00 1.740772834099201916e+01 -3.388814740684803439e+01 1.973906222284801615e+01 -6.665307512832006509e+00 1.973906222284801615e+01 -2.708134904217602568e+01
-3.486334589337602807e+01 -1.210073300582401146e+01 1.654572253593601516e+01 -1.210073300582401146e+01 -4.857925139251204882e+01 -1.050515155353601138e+01 1.654572253593601516e+01 -1.050515155353601138e+01 -3.336354286387203416e+01
-2.776485869568002585e+01 1.049426764185600902e+01 2.498946121728002012e+00 1.049644442419200985e+01 5.008776155136004604e+00 1.604506259865601336e+01 2.498946121728002012e+00 1.604723938099201419e+01 -3.032257794048002708e+01
-3.976981327872003646e+00 -1.358747534131201284e+01 -4.166361391104003609e+00 -1.358529855897601202e+01 -2.986327686758402677e+01 -5.685755461632005847e+00 -4.166361391104003609e+00 -5.685755461632005847e+00 -1.689836127436801405e+01
-3.116281592217602991e+01 -1.539638146252801576e+01 2.781927825408002874e+00 -1.539638146252801576e+01 -2.318490866073602419e+01 6.967880257536005928e+00 2.781927825408002874e+00 6.967880257536005928e+00 -3.182673453465602975e+01
-5.557325303808005934e+00 -2.712270790656002184e+00 9.175137546240009101e+00 -2.712270790656002184e+00 -1.666762234675201526e+01 -4.788921139200004728e-01 9.175137546240009101e+00 -4.788921139200004728e-01 -1.738596051763201444e+01
-3.468702652416003218e+01 -1.208114196480001112e+01 4.899937038336004136e+00 -1.208114196480001112e+01 -2.335252090060802033e+01 -3.151980822528003046e+00 4.899937038336004136e+00 -3.151980822528003046e+00 -3.939105315225604187e+01
-4.308505277644804465e+01 6.243011739648005154e+00 -4.481994829824004434e+00 6.243011739648005154e+00 -1.247296278528001068e+01 2.951716847616002948e+00 -4.481994829824004434e+00 2.951716847616002948e+00 -5.785887449088005496e+01
-2.874876431155202638e+01 1.239459862118401290e+01 5.108908142592005319e+00 1.239459862118401290e+01 5.677048332288005206e+00 4.540767952896004545e+00 5.108908142592005319e+00 4.540767952896004545e+00 -1.599281982259201484e+01
-3.047930626867202974e+01 -1.972164796416001842e+00 -9.266562404352010063e+00 -1.972164796416001842e+00 -4.133927334297604261e+01 -1.643035307212801399e+01 -9.266562404352010063e+00 -1.643035307212801399e+01 -1.170238183833600942e+01
-2.540087307878402356e+01 7.705809469440007220e+00 -9.723686694912007766e+00 7.705809469440007220e+00 -2.280397175193601811e+01 -1.499585351270401468e+01 -9.723686694912007766e+00 -1.499585351270401468e+01 -1.431016707686401368e+01
-3.669837340262403558e+01 -1.175027104972801162e+01 5.213393694720005023e+00 -1.175027104972801162e+01 -3.067957024358403118e+01 4.183775649792004003e+00 5.213393694720005023e+00 4.183775649792004003e+00 -2.942792040038402845e+01
-1.603635546931201716e+01 4.388393189376004422e+00 2.217052809216001918e+01 4.388393189376004422e+00 -2.962818437529602633e+01 -1.327837224960001228e+00 2.217052809216001918e+01 -1.327837224960001228e+00 -3.130212999168002952e+01
2.098418171904001817e+00 8.424147640320007735e-01 -5.936085430272004970e+00 8.424147640320007735e-01 -1.256874120806401152e+01 4.677905240064004211e+00 -5.936085430272004970e+00 4.677905240064004211e+00 -3.931268898816004054e+00
-4.533802249420804031e+01 1.713563054899201887e+01 -1.356135395328001092e+00 1.713563054899201887e+01 -2.696815636070402533e+01 9.519069155328010012e+00 -1.356135395328001092e+00 9.519069155328010012e+00 -2.957594159923202781e+01
-5.444785657036805304e+01 8.389319122944007390e+00 9.506008461312008606e+00 8.389319122944007390e+00 -2.554236393062402399e+01 -6.678368206848006139e+00 9.506008461312008606e+00 -6.678368206848006139e+00 -4.097357391052803877e+01
-2.603431673856002604e+00 1.951703042457601711e+01 2.738392178688002776e+00 1.951703042457601711e+01 -7.244331614208006087e+00 7.105017544704006482e+00 2.736215396352002838e+00 7.105017544704006482e+00 -1.623444266188801421e+01
-3.767357188915203636e+01 1.843299282124801763e+01 -1.319130095616001341e+01 1.843299282124801763e+01 -4.917133618790404626e+01 -1.134538953523200888e+01 -1.319130095616001341e+01 -1.134538953523200888e+01 -8.859504107520008276e+00
-8.644002656256009232e+01 -1.754051206348801628e+01 -2.655674449920002456e-01 -1.754051206348801628e+01 -5.626982338560005559e+01 2.161544859648001804e+00 -2.655674449920002456e-01 2.161544859648001804e+00 -5.208169417113604993e+01
-4.587351094886403757e+01 -6.044924547072005439e+00 1.364624846438401384e+01 -6.044924547072005439e+00 -4.195312596172803410e+01 -4.769330098176004284e+00 1.364624846438401384e+01 -4.769330098176004284e+00 -4.344422186188803892e+01
-2.782798538342402495e+01 -5.398420193280005774e-01 1.462797729792001356e+01 -5.398420193280005774e-01 -1.110376669593600951e+01 1.247078600294401163e+01 1.462797729792001356e+01 1.247078600294401163e+01 -1.924057906790401873e+01
-2.869216797081602621e+01 3.689646059520003352e+00 -1.202019205939201107e+01 3.689646059520003352e+00 -3.432132709171202833e+01 -1.027005906124800916e+01 -1.201801527705601025e+01 -1.027005906124800916e+01 -2.861380380672002843e+01
-5.624370199756805278e+01 -5.923024736256005340e+00 1.261445363712001111e+01 -5.923024736256005340e+00 -3.175925428224003255e+01 1.545515458560001498e+00 1.261445363712001111e+01 1.545515458560001498e+00 -4.134362690764803716e+01
-1.582520758272001515e+01 -5.015306502144004419e+00 -2.206386575769601777e+01 -5.015306502144004419e+00 -3.101044115865602890e+01 8.617881268224007130e+00 -2.206386575769601777e+01 8.617881268224007130e+00 -5.572562780160005502e+00
-3.908848040755204067e+01 1.691359875072001584e+00 -3.456730349568003291e+00 1.691359875072001584e+00 -1.527883521638401376e+01 -1.643252985446401482e+01 -3.456730349568003291e+00 -1.643252985446401482e+01 -2.691809036697602409e+01
-1.555964013772801380e+01 4.153300697088003979e+00 -1.286478360576001290e+00 4.153300697088003979e+00 -1.754486562816001571e+00 -6.861217923072006286e+00 -1.286478360576001290e+00 -6.861217923072006286e+00 -9.449412120576010210e+00
-3.961308495052803380e+01 -1.333496859033601289e+01 9.281799880704008743e+00 -1.333496859033601289e+01 -1.295403168153601214e+01 -8.356667387904007427e+00 9.281799880704008743e+00 -8.356667387904007427e+00 -1.381821426892801341e+01
-3.436486273843203065e+01 1.540073502720001386e+01 7.189912055808006741e+00 1.540073502720001386e+01 -3.897311094374403240e+01 -1.227705237504001090e+01 7.189912055808006741e+00 -1.227705237504001090e+01 -6.269133127680006190e+00
-3.067086311424003231e+00 -5.250398994432004862e+00 9.617024360448009901e+00 -5.250398994432004862e+00 -2.744487169228802514e+01 2.189843030016001890e+01 9.617024360448009901e+00 2.189625351782402163e+01 -5.251705063833605180e+01
-2.613880229068802308e+01 8.191231930368006786e+00 8.611350921216008203e+00 8.191231930368006786e+00 -1.162184089190401082e+01 -3.571446778675203859e+01 8.611350921216008203e+00 -3.571446778675203859e+01 -4.035536772710403852e+01
-1.197447963033601148e+01 9.884768587776008530e+00 5.195979436032004628e+00 9.884768587776008530e+00 -1.720746436608001773e+01 -2.098418171904001817e+00 5.195979436032004628e+00 -2.098418171904001817e+00 -4.821790552473604663e+01
-3.074269693132803027e+01 -1.165449262694401078e+01 -1.037236783104001070e+01 -1.165449262694401078e+01 -7.401059942400007863e-01 -8.493804675072007981e+00 -1.037236783104001070e+01 -8.493804675072007981e+00 -3.498524570419203172e+01
-1.527230486937601306e+01 2.139777036288001977e+00 -4.712733757440004112e+00 2.139777036288001977e+00 2.714447572992002566e+00 -4.873815650304004876e+00 -4.712733757440004112e+00 -4.873815650304004876e+00 -4.854224609280004898e+01
8.467683287040008722e-01 -6.663130730496005683e+00 1.523747635200001449e+00 -6.663130730496005683e+00 -3.567093214003202917e+01 1.423180291276801412e+01 1.525924417536001387e+00 1.423180291276801412e+01 -2.372257389772802227e+01
-8.075644788326407308e+01 -8.045387513856008255e+00 4.912997732352004654e+00 -8.045387513856008255e+00 -6.069522187468805896e+01 -1.273417666560001216e+00 4.912997732352004654e+00 -1.273417666560001216e+00 -5.233637770444804715e+01
-7.908250226688007700e+00 -6.726257418240005670e+00 9.340573003776007965e+00 -6.726257418240005670e+00 -9.048884170752009126e+00 1.168496757964801169e+01 9.340573003776007965e+00 1.168496757964801169e+01 -2.039645048832001706e+00
-6.484634578944005412e+00 -4.719264104448003927e+00 -1.070976909312001180e+00 -4.721440886784003865e+00 -2.275825932288002207e+01 -4.144593567744004226e+00 -1.070976909312001180e+00 -4.144593567744004226e+00 -1.630192291430401497e+01
-4.888617770188804457e+01 -9.286153445376008619e+00 -1.063358171136000863e+01 -9.288330227712009446e+00 -1.887270285312001761e+01 -4.251255902208003867e+00 -1.063358171136000863e+01 -4.251255902208003867e+00 -5.645920344883205644e+01
-1.127573250048000908e+01 -4.738855145472004260e+00 -9.244794580992008903e+00 -4.738855145472004260e+00 -3.351156406272003352e+01 -5.746705367040005008e+00 -9.244794580992008903e+00 -5.746705367040005008e+00 -1.703549856153601638e+01
-2.224671547392001969e+01 2.180265187737602162e+01 2.594724544512002407e+00 2.180265187737602162e+01 -4.590180911923204832e+01 -3.445846437888003155e+00 2.594724544512002407e+00 -3.445846437888003155e+00 -9.599610101760008618e+00
-3.657429680947203821e+01 7.518606188544007196e+00 -1.394011407974401351e+01 7.518606188544007196e+00 -1.771683143270401573e+01 -5.213393694720005023e+00 -1.394011407974401351e+01 -5.213393694720005023e+00 -2.694856531968002500e+01
-8.095453507584007724e+00 9.016232435712007387e+00 -5.165504483328005492e+00 9.016232435712007387e+00 -1.485000909619201437e+01 2.731861831680002517e+00 -5.165504483328005492e+00 2.731861831680002517e+00 -2.863557163008002604e+01
-3.700094614732802967e+01 -1.155436063948801184e+01 -3.748419182592003462e+00 -1.155436063948801184e+01 -1.026135193190400940e+01 1.631933717299201447e+01 -3.748419182592003462e+00 1.631933717299201447e+01 -3.057943825612802868e+01
-4.399494779289604196e+01 7.697102340096007467e+00 9.643145748480008717e-01 7.697102340096007467e+00 -2.580140102860802642e+01 -3.454553567232003353e+00 9.643145748480008717e-01 -3.454553567232003353e+00 -4.060352091340803327e+01
-2.351795635814401919e+01 -1.837204291584001670e+00 1.405112997888001303e+01 -1.837204291584001670e+00 -6.323335007846405631e+01 -1.298015306956801318e+01 1.405112997888001303e+01 -1.297797628723201235e+01 -3.834619763097603595e+01
-2.373345780940801930e+01 3.134566563840002762e-01 1.408378171392001299e+01 3.134566563840002762e-01 -9.227380322304007620e+00 -3.252112809984003317e+00 1.408378171392001299e+01 -3.249936027648002934e+00 -4.030747851571203455e+01
-1.192223685427201119e+01 -5.341823852544004936e+00 -7.028830162944006865e+00 -5.341823852544004936e+00 -1.242942713856001191e+01 -6.754555588608005756e+00 -7.028830162944006865e+00 -6.754555588608005756e+00 -4.169191208140804150e+01
1.185040303718401056e+01 8.132458807296007564e+00 5.849014136832005661e+00 8.132458807296007564e+00 4.464580571136004039e+00 1.151082499276801130e+01 5.849014136832005661e+00 1.151082499276801130e+01 -7.048421203968006310e+00
-3.222290891980802741e+01 4.878169214976004753e+00 -2.544658550784002049e+00 4.878169214976004753e+00 -7.286125835059206679e+01 1.557270083174401343e+01 -2.544658550784002049e+00 1.557270083174401343e+01 -5.408868748492804457e+01
-4.743426388377604752e+01 1.779954916147201871e+01 7.592616787968007763e+00 1.779954916147201871e+01 -1.623879622656001587e+01 7.903896662016007824e+00 7.592616787968007763e+00 7.903896662016007824e+00 -3.817423182643203461e+01
-4.435629366067203705e+01 1.868114600755201593e+01 -1.835027509248001820e+01 1.868114600755201593e+01 -3.862047220531204061e+01 1.952573755392002042e+01 -1.835027509248001820e+01 1.952573755392002042e+01 -1.436458663526401303e+01
-2.051181995212802178e+01 -1.822619849932801728e+01 -1.505462663577601390e+01 -1.822619849932801728e+01 3.199870033920003021e+00 7.620914958336007849e+00 -1.505462663577601390e+01 7.620914958336007849e+00 -1.018734133248000973e+01
1.491095900160001264e+00 -1.598411269324801509e+01 -1.644776733081601705e+01 -1.598411269324801509e+01 -3.435397882675203363e+01 -2.176782336000001905e+01 -1.644776733081601705e+01 -2.176782336000001905e+01 -5.790676370227205894e+01
-3.952166009241603462e+01 5.135029530624004579e+00 -3.330476974080003316e-01 5.135029530624004579e+00 -1.368978411110401261e+01 5.206863347712005208e+00 -3.330476974080003316e-01 5.206863347712005208e+00 -5.746052332339205293e+01
-4.806770754355204645e+01 1.739249086464001692e+01 1.110158991360001179e+00 1.739249086464001692e+01 -2.991987320832002695e+01 3.354421579776003082e+00 1.110158991360001179e+00 3.354421579776003082e+00 -4.975036028928004583e+01
-2.461287787315202280e+01 1.086432063897600919e+01 -2.203556758732802123e+01 1.086214385664001014e+01 -3.055767043276802752e+01 1.471504859136001375e+00 -2.203774436966401851e+01 1.471504859136001375e+00 -1.448430966374401407e+01
-2.676789238579202745e+01 -5.788064231424005612e+00 2.084269086720001951e+01 -5.788064231424005612e+00 -4.498320697344004060e+01 -8.881271930880008103e-01 2.084269086720001951e+01 -8.881271930880008103e-01 -2.090581755494401861e+01
-2.975226096844802726e+01 1.378556253388801345e+01 -1.035060000768000954e+01 1.378556253388801345e+01 -3.837231901900803877e+01 2.908181200896002405e+00 -1.035060000768000954e+01 2.908181200896002405e+00 -2.869652153548802787e+01
-2.223365477990402184e+01 9.177314328576008151e+00 2.176782336000002149e-02 9.177314328576008151e+00 -2.270383976448002272e+01 2.047916821708802004e+01 2.176782336000002149e-02 2.047916821708802004e+01 -9.098950164480008596e+00
-1.655225288294401409e+01 -1.158918915686401085e+01 1.092962410905601089e+01 -1.158918915686401085e+01 -3.810239800934403576e+01 -6.478104231936005597e+00 1.092962410905601089e+01 -6.478104231936005597e+00 -2.521366979788802354e+01
-3.478498172928003385e+01 -8.023619690496007095e+00 1.655225288294401409e+01 -8.023619690496007095e+00 -3.237528368332803552e+01 3.493735649280003575e+00 1.655225288294401409e+01 3.493735649280003575e+00 -1.104499357286401029e+01
-4.700761454592004185e+01 -2.039645048832001706e+00 -2.045087004672001996e+01 -2.039645048832001706e+00 -6.523598982758406351e+01 1.128879319449601049e+01 -2.045087004672001996e+01 1.128879319449601049e+01 -5.987022136934405836e+01
3.099738046464002750e+00 4.179422085120004238e-01 1.134538953523200888e+01 4.179422085120004238e-01 -8.115044548608008057e+00 -1.831109301043201398e+01 1.134538953523200888e+01 -1.831109301043201398e+01 -5.272819852492805381e+01
-3.492211901644803618e+01 3.084500570112003182e+00 -3.637403283456003500e+00 3.084500570112003182e+00 -3.084065213644802839e+01 -3.411017920512003254e+00 -3.637403283456003500e+00 -3.411017920512003254e+00 -7.853830668288007466e+00
-5.134811852390404852e+01 2.386406474956802271e+01 -3.744065617920003808e-01 2.386406474956802271e+01 -6.468308711424005253e+01 1.092091697971200936e+01 -3.744065617920003808e-01 1.092091697971200936e+01 -4.457179511193604071e+01
-1.507857124147201411e+01 -5.603037732864004639e+00 -3.025727447040002516e-01 -5.603037732864004639e+00 -7.040584787558405822e+01 -5.485491486720005527e-01 -3.025727447040002516e-01 -5.485491486720005527e-01 -4.190959031500803889e+01
-1.774077603840001416e+01 8.587406315520007993e+00 3.136743346176003033e+00 8.587406315520007993e+00 -4.545556874035204231e+01 -1.501979811840001400e+00 3.136743346176003033e+00 -1.501979811840001400e+00 -3.608887434854403153e+01
-2.461723143782402090e+01 -1.887270285312001805e+00 -4.527707258880003804e-01 -1.887270285312001805e+00 -4.076024924160003593e+01 3.491558866944003192e+00 -4.527707258880003804e-01 3.491558866944003192e+00 -1.799110600704001683e+01
-6.334436597760007004e-01 -2.162633250816001862e+01 -1.644776733081601705e+01 -2.162633250816001862e+01 -3.468920330649603301e+01 -6.325729468416006362e+00 -1.644776733081601705e+01 -6.325729468416006362e+00 1.318694739148801176e+01
-4.264969630924803567e+01 -5.137206312960004295e-01 2.324803534848002062e+00 -5.137206312960004295e-01 -1.129096997683200954e+01 -1.641293881344001448e+00 2.324803534848002062e+00 -1.641293881344001448e+00 -1.005020404531200917e+01
3.273880633344002700e+00 -9.625731489792007878e+00 1.719658045440001670e+00 -9.625731489792007878e+00 -1.234453262745601165e+01 1.105805426688001081e+00 1.719658045440001670e+00 1.105805426688001081e+00 -3.223814639616003319e+01
-6.031863853056005809e+00 -1.818483963494401934e+01 1.232058802176001056e+00 -1.818483963494401934e+01 -4.303498678272003986e+01 1.106240783155200980e+01 1.232058802176001056e+00 1.106240783155200980e+01 -2.369862929203202384e+01
-3.378366185472003025e+01 9.199082151936007534e+00 1.668068304076801311e+01 9.199082151936007534e+00 -3.677673756672003691e+01 7.407590289408007678e+00 1.668068304076801311e+01 7.407590289408007678e+00 -2.847884330188802338e+01
-2.917541364940802850e+01 -1.242942713856001191e+01 -1.327619546726401367e+01 -1.242942713856001191e+01 -6.369265115136006017e+00 -4.399277101056003225e+00 -1.327619546726401367e+01 -4.399277101056003225e+00 -2.842442374348802758e+01
-5.239079726284804650e+01 -1.584697540608001498e+00 6.199476092928005500e+00 -1.584697540608001498e+00 -7.544292220108806646e+01 -5.694462590976004712e+00 6.199476092928005500e+00 -5.694462590976004712e+00 -5.928902048563205796e+01
-2.518972519219202510e+01 -1.061181388800000924e+01 -1.567283281920001548e+00 -1.061181388800000924e+01 -3.480457277030403418e+01 3.822429782016003585e+00 -1.567283281920001548e+00 3.822429782016003585e+00 -3.266914929868803341e+01
-6.919555689676805343e+01 4.477641265152003669e+00 3.744065617920003808e-01 4.477641265152003669e+00 -6.054502389350405167e+01 8.696245432320008462e+00 3.744065617920003808e-01 8.696245432320008462e+00 -3.689210703052803808e+01
-5.114350098432004188e+01 -1.102757931417601078e+01 6.391032938496005400e+00 -1.102757931417601078e+01 -1.439070802329601229e+01 6.634832560128005596e+00 6.391032938496005400e+00 6.634832560128005596e+00 -4.813954136064004530e+01
-3.285199901491203178e+01 5.872958742528004983e+00 -6.266956345344006252e+00 5.870781960192005933e+00 -4.057957630771203839e+01 4.353564672000004521e+00 -6.266956345344006252e+00 4.351387889664003694e+00 -3.508973125632002876e+01
-8.092841368780807443e+01 -1.634981212569601539e+01 -6.480281014272006423e+00 -1.634981212569601539e+01 -3.479586564096003087e+01 -4.018340192256003363e+00 -6.480281014272006423e+00 -4.018340192256003363e+00 -6.645716471808006531e+01
-2.983933226188802834e+01 -2.342217793536002013e+00 2.973484670976002775e+00 -2.342217793536002013e+00 -2.799777440563202546e+01 1.578167193600001461e+00 2.973484670976002775e+00 1.578167193600001461e+00 -1.824796632268801844e+01
-2.511789137510402625e+01 6.682721771520006016e+00 2.464117604352002111e+00 6.682721771520006016e+00 -2.441914424524802385e+01 1.412731736064001264e+00 2.464117604352002111e+00 1.412731736064001264e+00 -2.165680746086401953e+01
-3.961308495052803380e+01 1.279730335334401126e+01 2.168728241356802044e+01 1.279730335334401126e+01 -4.099969529856004158e+01 6.525993443328006016e+00 2.168728241356802044e+01 6.525993443328006016e+00 -2.890549263974402550e+01
-6.221896950988806196e+01 1.100798827315201045e+01 7.052774768640006187e+00 1.100798827315201045e+01 -3.146756544921602838e+01 1.230970411008001264e+01 7.052774768640006187e+00 1.230970411008001264e+01 -5.033591473766404079e+01
-3.067739346124802680e+01 7.633975652352007479e+00 3.615635460096003229e+00 7.633975652352007479e+00 -6.519463096320006912e+01 5.809832054784004995e+00 3.615635460096003229e+00 5.809832054784004995e+00 -3.643062917529603340e+01
-3.682027321344003212e+01 -9.878238240768009604e+00 1.867679244288001916e+00 -9.878238240768009604e+00 -3.588208002662403118e+01 8.744134643712007104e+00 1.867679244288001916e+00 8.744134643712007104e+00 -3.625430980608003040e+01
-6.571705872384006497e+00 -1.397494259712001430e+01 7.076719374336006396e+00 -1.397494259712001430e+01 -3.207053415628802640e+01 -1.676122398720001572e+00 7.076719374336006396e+00 -1.676122398720001572e+00 -4.198577769676803939e+01
-2.074691244441601867e+01 -1.508292480614401398e+01 -4.148947132416004102e+00 -1.508292480614401398e+01 -4.450431485952004351e+01 -4.013986627584003486e+00 -4.148947132416004102e+00 -4.013986627584003486e+00 -4.123043422617603682e+01
-6.588467096371205400e+01 5.439779057664004824e+00 3.672231800832003401e+00 5.439779057664004824e+00 -3.456730349568002936e+01 1.084037603328001031e+00 3.672231800832003401e+00 1.084037603328001031e+00 -6.133737266380806119e+01
-5.292193215283204921e+01 4.157654261760004299e-01 3.482851737600003300e-02 4.157654261760004299e-01 -5.603037732864004994e+01 1.845258386227201797e+01 3.482851737600003300e-02 1.845258386227201797e+01 -7.497273721651207268e+01
-1.794974714265601534e+01 3.611281895424003796e+00 1.277335874764801105e+01 3.611281895424003796e+00 -3.563828040499203809e+01 -9.218673192960007867e+00 1.277335874764801105e+01 -9.218673192960007867e+00 -2.670476569804802480e+01