-3.006647868100000051e+04
-3.006288157299999875e+04
-3.006375797700000112e+04
-3.006160796499999924e+04
-3.006537974599999870e+04
-3.006634797099999923e+04
-3.006174958799999877e+04
-3.006135605700000087e+04
-3.006326335499999914e+04
-3.006513614600000074e+04
-3.006239083200000096e+04
-3.006376287600000069e+04
-3.006535629899999913e+04
-3.006042181799999889e+04
-3.006239486699999907e+04
-3.006442451399999845e+04
-3.006213455199999953e+04
-3.006394513000000006e+04
-3.006209428299999854e+04
-3.006440784999999960e+04
-3.006045839200000046e+04
-3.006339384000000064e+04
-3.006395827999999892e+04
-3.006309860800000024e+04
-3.005833151200000066e+04
-3.006185086199999932e+04
-3.006139189999999871e+04
-3.006475513800000044e+04
-3.006307802499999889e+04
-3.006213819399999920e+04
-3.006510477900000114e+04
-3.006396591400000034e+04
-3.005897402700000021e+04
-3.006646664900000178e+04
-3.006433506399999897e+04
-3.005629228099999818e+04
-3.006259172200000103e+04
-3.006182883500000025e+04
-3.006085857100000067e+04
-3.006490334799999982e+04
-3.006255226400000174e+04
-3.006336697400000048e+04
-3.006261107899999843e+04
-3.006114734699999826e+04
-3.006343378200000006e+04
-3.005891084599999886e+04
-3.006125905300000159e+04
-3.005780174800000168e+04
-3.006292362499999945e+04
-3.006379439400000047e+04
-3.006076587300000028e+04
-3.006425517000000036e+04
-3.006034799700000076e+04
-3.006256191599999875e+04
-3.006200459799999953e+04
-3.006368938899999921e+04
-3.006400919399999839e+04
-3.006090742099999989e+04
-3.006217006000000038e+04
-3.006660326799999893e+04
-3.006370681999999942e+04
-3.006447335799999928e+04
-3.006565267200000017e+04
-3.006348923700000159e+04
-3.006396043700000155e+04
-3.006199944200000027e+04
-3.006022859199999948e+04
-3.006533602199999950e+04
-3.006079810899999939e+04
-3.005593984700000146e+04
-3.006341451900000175e+04
-3.006029088799999954e+04
-3.006160404700000072e+04
-3.006513660900000104e+04
-3.006283893700000044e+04
-3.006214894300000014e+04
-3.006048903499999869e+04
-3.006193560200000138e+04
-3.006399002299999847e+04
-3.006117505900000106e+04
-3.006097665799999959e+04
-3.006228623099999822e+04
-3.006244135900000038e+04
-3.005995653300000049e+04
-3.006510654200000135e+04
-3.005899794699999984e+04
-3.006513502399999925e+04
-3.005912963699999818e+04
-3.006046233999999822e+04
-3.005577410400000008e+04
-3.006249274000000150e+04
-3.006292149499999869e+04
-3.006371239399999831e+04
-3.006249126800000158e+04
-3.006383907199999885e+04
-3.006734817900000053e+04
-3.006386012800000026e+04
-3.006525790300000153e+04
-3.006467151200000080e+04
-3.006098773900000015e+04
-3.006212814599999911e+04
-3.006525675000000047e+04
-3.006265238400000089e+04
-3.006394890600000144e+04
-3.006139156400000138e+04
-3.006277051099999881e+04
-3.005659494500000073e+04
-3.006179348499999833e+04
-3.006223712499999965e+04
-3.006406721800000014e+04
-3.006293876299999829e+04
-3.006092772999999943e+04
-3.006274869799999942e+04
-3.006202602599999955e+04
-3.005982158599999821e+04
-3.006156974899999841e+04
-3.006157170200000110e+04
-3.006344042800000170e+04
-3.006190553899999941e+04
-3.006061339500000031e+04
-3.006306654300000082e+04
-3.006527333300000100e+04
-3.006201607299999887e+04
-3.006174173499999961e+04
-3.006423114999999962e+04
-3.005925250800000140e+04
-3.006234622999999920e+04
-3.006171601699999883e+04
-3.006150054599999930e+04
-3.006241852899999867e+04
-3.006262642399999822e+04
-3.006435652299999856e+04
-3.006155103700000109e+04
-3.005868045699999857e+04
-3.006107958900000085e+04
-3.006257071599999836e+04
-3.006243400699999984e+04
-3.006173569900000075e+04
-3.006498939600000085e+04
-3.006390219599999909e+04
-3.006225786299999891e+04
-3.006261024700000053e+04
-3.006343653999999879e+04
-3.006314255000000048e+04
-3.006243449999999939e+04
-3.006377219100000002e+04
-3.006176730699999825e+04
-3.006399165500000163e+04
-3.006279725200000030e+04
-3.005982020600000033e+04
-3.005925211100000161e+04
-3.005954834599999958e+04
-3.005904797099999996e+04
-3.006199559099999897e+04
-3.006535270699999819e+04
-3.006116583600000013e+04
-3.005894860300000073e+04
-3.006384678799999892e+04
-3.006395885300000009e+04
-3.006486135799999829e+04
-3.006547917999999845e+04
-3.005990073100000154e+04
-3.006638645600000018e+04
-3.006491588399999819e+04
-3.006242938299999878e+04
-3.006176595000000088e+04
-3.005976193599999897e+04
-3.006120655600000100e+04
-3.006179865300000165e+04
-3.006179477000000043e+04
-3.006222879100000137e+04
-3.006445066099999895e+04
-3.006134325600000011e+04
-3.006427242699999988e+04
-3.006644673500000135e+04
-3.006401161299999876e+04
-3.006233439599999838e+04
-3.006274605800000063e+04
-3.005840908399999898e+04
-3.006067970499999865e+04
-3.005901296200000070e+04
-3.006635642999999982e+04
-3.006569539499999883e+04
-3.006434356900000057e+04
-3.006221193900000071e+04
-3.006441175099999964e+04
-3.006145485099999860e+04
-3.006583235399999830e+04
-3.006036877100000129e+04
-3.006376859699999841e+04
-3.006027322799999820e+04
-3.005897657099999924e+04
-3.006165670099999988e+04
-3.006420714900000166e+04
-3.006376508900000044e+04
-3.005971800399999847e+04
-3.005996997299999930e+04
-3.006143959000000177e+04
-3.006496096899999975e+04
-3.006449270299999989e+04
-3.006215613999999914e+04
-3.006589679199999955e+04
-3.006291208399999960e+04
-3.006236833599999954e+04
-3.006325172599999860e+04
-3.005965071800000078e+04
-3.006098727299999882e+04
-3.006348794899999848e+04
-3.005891852199999994e+04
-3.006344508800000040e+04
-3.006424706599999990e+04
-3.006297666599999866e+04
-3.006132021499999973e+04
-3.006121473699999842e+04
-3.006235996499999965e+04
-3.006072065199999997e+04
-3.006129058000000077e+04
-3.005881858300000022e+04
-3.006232058699999834e+04
-3.006070757600000070e+04
-3.006316793200000029e+04
-3.006042946799999845e+04
-3.006084127000000080e+04
-3.006118214499999885e+04
-3.006629862299999877e+04
-3.006445046000000002e+04
-3.006354614999999831e+04
-3.006394360700000107e+04
-3.006280615899999975e+04
-3.006416698000000179e+04
-3.006481031100000109e+04
-3.006194759400000112e+04
-3.006167708700000003e+04
-3.006644106900000043e+04
-3.006352361599999858e+04
-3.005897110700000121e+04
-3.006164034099999844e+04
-3.005899233299999833e+04
-3.006330981600000086e+04
-3.006678384100000039e+04
-3.006308865199999855e+04
-3.006536105400000088e+04
-3.006061974399999963e+04
-3.006180989799999952e+04
-3.006197651200000109e+04
-3.006195499600000039e+04
-3.006532478500000070e+04
-3.006541179700000066e+04
-3.006592276100000163e+04
-3.006343627900000138e+04
-3.006253208000000086e+04
-3.006409908799999903e+04
-3.006314748400000099e+04
-3.006252787299999909e+04
-3.006654814999999871e+04
-3.006538501700000052e+04
-3.006411629199999879e+04
-3.005839659699999902e+04
-3.006491208099999858e+04
-3.006073918399999820e+04
-3.006254537300000084e+04
-3.006422186499999953e+04
-3.006471856900000057e+04
-3.006445877200000177e+04
-3.005847744199999943e+04
-3.006365824300000168e+04
-3.005618345599999884e+04
-3.006444588899999872e+04
-3.006209549300000072e+04
-3.006422815999999875e+04
-3.006495688399999926e+04
-3.006384763400000156e+04
-3.006370144100000107e+04
-3.005911164999999892e+04
-3.006266199699999925e+04
-3.006408287500000006e+04
-3.006413913600000160e+04
-3.006515184800000134e+04
-3.006850596399999995e+04
-3.006510085400000025e+04
-3.006342354799999885e+04
-3.006404778799999985e+04
-3.006378284500000154e+04
-3.006405524399999922e+04
-3.006311101100000087e+04
-3.006380769700000019e+04
-3.006216394500000024e+04
-3.006514824800000133e+04
-3.006324808399999893e+04
-3.006408336499999859e+04
-3.006339435600000070e+04
-3.006111141199999838e+04
-3.006167123100000026e+04
-3.005980336000000170e+04
-3.006056124999999884e+04
-3.006336385499999960e+04
-3.005989393500000006e+04
-3.006170419200000106e+04
-3.006368137299999944e+04
-3.006389932499999850e+04
-3.006445480799999859e+04
-3.006447119899999961e+04
-3.006023197000000073e+04
-3.006023716599999898e+04
-3.006306572199999937e+04
-3.006663565499999822e+04
-3.006283289199999854e+04
-3.006129881899999964e+04
-3.005899014800000077e+04
-3.006048878699999841e+04
-3.006041007199999876e+04
-3.006510751399999936e+04
-3.006213316800000030e+04
-3.006218913199999952e+04
-3.006540139800000179e+04
-3.006683220599999913e+04
-3.006257771900000080e+04
-3.006339582199999859e+04
-3.006166750600000159e+04
-3.006553886399999828e+04
-3.006136089300000094e+04
-3.006113481500000125e+04
-3.006232134600000063e+04
-3.005854646700000012e+04
-3.005929119100000025e+04
-3.006362630500000159e+04
-3.006362740000000122e+04
-3.006463593699999910e+04
-3.006316022800000064e+04
-3.006393703000000096e+04
-3.006471260800000164e+04
-3.006154840100000001e+04
-3.006440291300000172e+04
-3.006480428599999868e+04
-3.006247861099999864e+04
-3.006149923000000126e+04
-3.006609948799999984e+04
-3.006564799499999936e+04
-3.006096025500000178e+04
-3.006501378499999919e+04
-3.006581412099999943e+04
-3.006374019100000078e+04
-3.006262712800000008e+04
-3.006127471199999854e+04
-3.006015175699999963e+04
-3.005874148100000093e+04
-3.005770475000000079e+04
-3.006221322299999883e+04
-3.006230284599999868e+04
-3.006392322100000092e+04
-3.006069135100000130e+04
-3.005961283800000092e+04
-3.006129488499999934e+04
-3.006235414400000082e+04
-3.006261493200000041e+04
-3.006345872700000109e+04
-3.005805986499999926e+04
-3.006201208899999983e+04
-3.006345324800000162e+04
-3.006312904300000082e+04
-3.006443230799999947e+04
-3.006554238400000031e+04
-3.006593070599999919e+04
-3.005940810599999895e+04
-3.006112615699999878e+04
-3.006407191400000011e+04
-3.006417760099999941e+04
-3.006241821699999855e+04
-3.006568260899999950e+04
-3.006576733299999978e+04
-3.006184626500000013e+04
-3.006577484600000025e+04
-3.005996089500000016e+04
-3.006187723399999959e+04
-3.006161426600000050e+04
-3.006138539200000014e+04
-3.006548151800000051e+04
-3.006276538100000107e+04
-3.005998087799999848e+04
-3.006292097300000023e+04
-3.006313321699999869e+04
-3.006080056200000035e+04
-3.006321266499999911e+04
-3.006033520700000008e+04
-3.006223460400000113e+04
-3.006311173899999994e+04
-3.006349574399999983e+04
-3.006532089700000142e+04
-3.005968999899999835e+04
-3.006182014599999820e+04
-3.006482262700000138e+04
-3.006805042400000093e+04
-3.006310888799999884e+04
-3.006098051199999827e+04
-3.006151328099999955e+04
-3.006052336700000160e+04
-3.006406349699999919e+04
-3.005996742699999959e+04
-3.006402716399999917e+04
-3.006220474100000138e+04
-3.006477010299999893e+04
-3.006276425599999857e+04
-3.006167268300000069e+04
-3.006274391399999877e+04
-3.006540323300000091e+04
-3.006403930799999944e+04
-3.006690845700000136e+04
-3.006411940899999900e+04
-3.006048642900000050e+04
-3.006186729900000137e+04
-3.005945219599999837e+04
-3.006257421600000089e+04
-3.006439101500000106e+04
-3.006168440399999963e+04
-3.006319946999999956e+04
-3.006070066299999962e+04
-3.005863445800000045e+04
-3.006084547000000020e+04
-3.006318840400000045e+04
-3.006318456000000151e+04
-3.006580026999999973e+04
-3.006120270900000105e+04
-3.006329127099999823e+04
-3.006381772899999851e+04
-3.006236320799999885e+04
-3.006285734600000069e+04
-3.006173248500000045e+04
-3.006053739499999938e+04
-3.006373326799999995e+04
-3.006424196600000141e+04
-3.006601819899999828e+04
-3.006241985199999908e+04
-3.006266284900000028e+04
-3.006234857099999863e+04
-3.006395395999999892e+04
-3.006222706499999913e+04
-3.006318332400000145e+04
-3.006536595700000180e+04
-3.006234219700000176e+04
-3.006499909800000023e+04
-3.006153667299999870e+04
-3.006311128800000006e+04
-3.006477798600000096e+04
-3.006156598700000177e+04
-3.006409003899999880e+04
-3.006007044799999858e+04
-3.005955571000000054e+04
-3.006758675299999959e+04
-3.006156421899999987e+04
-3.006009587299999839e+04
-3.005776928000000044e+04
-3.006132937899999888e+04
-3.006421474799999851e+04
-3.006158899999999994e+04
-3.006401488999999856e+04
-3.006443940700000167e+04
-3.006717619700000068e+04
-3.006280656200000158e+04
-3.006199590000000171e+04
-3.006218827999999849e+04
-3.005932508999999845e+04
-3.006250909699999829e+04
-3.006655991599999834e+04
-3.006436665400000129e+04
-3.006534399699999994e+04
-3.006354772299999968e+04
-3.006567518299999938e+04
-3.006099672500000088e+04
-3.006313878699999987e+04
-3.006590544199999931e+04
-3.006432050399999935e+04
-3.006144585500000176e+04
-3.006515236899999945e+04
-3.006325904399999854e+04
-3.006189246999999887e+04
-3.006608971699999893e+04
-3.006256034799999907e+04
-3.006224282500000118e+04
-3.006065068199999951e+04
-3.006541442900000038e+04
-3.006411776699999973e+04
-3.006402261200000066e+04
-3.006296998600000006e+04
-3.006410256700000173e+04
-3.005902682199999981e+04
-3.005695583099999931e+04
-3.006308078000000023e+04
-3.006087102700000105e+04
-3.006443942800000150e+04
-3.006050045200000022e+04
-3.006088880900000004e+04
-3.006497042199999851e+04
-3.006432381600000008e+04
-3.006021298899999965e+04
-3.006266537800000151e+04
-3.006325843600000007e+04
-3.006396369300000151e+04
-3.006381700899999851e+04
-3.006232905899999969e+04
-3.006289015500000096e+04
-3.006173233199999959e+04
-3.006175622799999837e+04
-3.006482875000000058e+04
-3.006183394300000145e+04
-3.006385685200000080e+04
-3.005997505699999965e+04
-3.006345961299999908e+04
-3.006229252800000177e+04
-3.006298929399999906e+04
-3.006525793600000179e+04
-3.006163369099999909e+04
-3.006404517499999929e+04
-3.006118817000000126e+04
-3.006538484700000117e+04
-3.005970419899999979e+04
-3.005931100800000058e+04
-3.006367150100000072e+04
-3.006414438399999926e+04
-3.006516348700000162e+04
-3.006471165800000017e+04
-3.005804757600000084e+04
-3.006161404699999912e+04
-3.006336183499999970e+04
-3.006297543299999961e+04
-3.006447025600000052e+04
-3.006306219699999929e+04
-3.006062408100000175e+04
-3.006571948899999916e+04
-3.006505974799999967e+04
-3.006212179100000139e+04
-3.006253269899999941e+04
-3.006277212800000052e+04
-3.006278911599999992e+04
-3.006010577600000033e+04
-3.006136250899999868e+04
-3.006095180800000162e+04
-3.006364121299999897e+04
-3.006427924999999959e+04
-3.006058696000000054e+04
-3.006238286199999857e+04
-3.006166654099999869e+04
-3.006254187900000034e+04
-3.006327971700000126e+04
-3.006580309299999863e+04
-3.006315954100000090e+04
-3.006256342700000096e+04
-3.006366776300000129e+04
-3.006473638600000049e+04
-3.006610009699999864e+04
-3.006164203300000008e+04
-3.006408892099999866e+04
-3.006580924299999970e+04
-3.006110119800000029e+04
-3.006229555600000094e+04
-3.006653162199999861e+04
-3.006363986999999906e+04
-3.006037820799999827e+04
-3.006053295599999910e+04
-3.006062219199999890e+04
-3.006398576600000160e+04
-3.006287385799999902e+04
-3.006587122900000031e+04
-3.006030430300000080e+04
-3.006087757100000090e+04
-3.006453059700000085e+04
-3.006395701600000029e+04
-3.006468173599999864e+04
-3.006013577499999883e+04
-3.006264831799999956e+04
-3.006094634900000165e+04
-3.006412946799999918e+04
-3.006502021999999852e+04
-3.006513506100000086e+04
-3.006711461799999961e+04
-3.005741930900000079e+04
-3.006413557199999923e+04
-3.006357072400000106e+04
-3.006400522800000181e+04
-3.006351162200000181e+04
-3.006190737299999819e+04
-3.006244409699999960e+04
-3.006655627699999968e+04
-3.006479877900000065e+04
-3.006165715400000045e+04
-3.006339094499999919e+04
-3.006759920000000056e+04
-3.005658810200000153e+04
-3.005963753100000031e+04
-3.006412573300000076e+04
-3.006406392200000118e+04
-3.006610224499999822e+04
-3.006326379000000088e+04
-3.006142651599999954e+04
-3.006424407699999938e+04
-3.006771352599999955e+04
-3.006411228499999925e+04
-3.006417515700000149e+04
-3.006240999200000078e+04
-3.006338651499999833e+04
-3.006242134100000112e+04
-3.006602323999999862e+04
-3.006199716999999873e+04
-3.006079233899999963e+04
-3.006490870599999835e+04
-3.005742167600000175e+04
-3.006080080799999996e+04
-3.006279588199999853e+04
-3.006292830799999865e+04
-3.006266849500000171e+04
-3.005777593899999920e+04
-3.006331714099999954e+04
-3.006063325199999963e+04
-3.006307621500000096e+04
-3.006105916399999842e+04
-3.006089447999999902e+04
-3.006420451099999991e+04
-3.006062348900000143e+04
-3.006278778500000044e+04
-3.006560350699999981e+04
-3.005865750199999820e+04
-3.006161577200000102e+04
-3.006196405800000139e+04
-3.006419770799999969e+04
-3.006185974799999894e+04
-3.006350402200000099e+04
-3.006214493199999924e+04
-3.006001946500000122e+04
-3.006239497699999993e+04
-3.005872483300000022e+04
-3.006391425199999867e+04
-3.006286301599999933e+04
-3.006069728699999905e+04
-3.006387587899999926e+04
-3.006463768500000151e+04
-3.006202672199999870e+04
-3.006432013699999879e+04
-3.005874743200000012e+04
-3.006608349900000030e+04
-3.006158610400000180e+04
-3.006370027599999958e+04
-3.006401274700000067e+04
-3.006257172500000161e+04
-3.005857647100000031e+04
-3.006141734500000166e+04
-3.006250397800000064e+04
-3.006456067400000029e+04
-3.006163129199999821e+04
-3.006591186300000118e+04
-3.006730574600000182e+04
-3.006455746899999940e+04
-3.006302271800000017e+04
-3.005972441600000093e+04
-3.006420511600000100e+04
-3.006272872799999823e+04
-3.006145374900000024e+04
-3.006330730000000040e+04
-3.006503156600000148e+04
-3.006056179300000076e+04
-3.006280403200000001e+04
-3.006433715999999913e+04
-3.006138786299999992e+04
-3.006348533300000054e+04
-3.006333617700000104e+04
-3.006252774900000077e+04
-3.006136637999999948e+04
-3.005898442100000102e+04
-3.006525508600000103e+04
-3.005910043900000164e+04
-3.006168363799999861e+04
-3.006339269899999999e+04
-3.006379675000000134e+04
-3.006655557699999918e+04
-3.006445010800000091e+04
-3.006235887599999842e+04
-3.006390042600000015e+04
-3.006378734400000030e+04
-3.006734212199999820e+04
-3.006163325700000132e+04
-3.006453915599999891e+04
-3.006542210100000011e+04
-3.005687942200000180e+04
-3.006700292400000035e+04
-3.005676771500000177e+04
-3.005802643700000044e+04
-3.006195196099999885e+04
-3.006584454900000128e+04
-3.006329235899999912e+04
-3.006369366299999820e+04
-3.006461469600000055e+04
-3.006614770399999907e+04
-3.006377069399999891e+04
-3.006207001200000013e+04
-3.006266847699999926e+04
-3.006285680199999842e+04
-3.006139333199999965e+04
-3.005970420300000114e+04
-3.006359956299999976e+04
-3.006069717699999819e+04
-3.006255680700000084e+04
-3.006164971700000024e+04
-3.006270825300000070e+04
-3.006502129599999898e+04
-3.006543389699999898e+04
-3.006050717200000145e+04
-3.005942857599999843e+04
-3.006410800300000119e+04
-3.006207797600000049e+04
-3.006418433799999912e+04
-3.006519151000000056e+04
-3.006507599399999890e+04
-3.005607301000000007e+04
-3.005819004900000073e+04
-3.006101627100000042e+04
-3.006090187700000024e+04
-3.006360500500000126e+04
-3.006295541900000171e+04
-3.006190932899999825e+04
-3.006491708899999867e+04
-3.006440359600000011e+04
-3.006483248399999866e+04
-3.005793636400000105e+04
-3.006191432100000020e+04
-3.006217135399999825e+04
-3.006433710200000132e+04
-3.005771285999999964e+04
-3.006143714399999953e+04
-3.006062347500000033e+04
-3.005971466700000019e+04
-3.006522020899999916e+04
-3.006157570399999895e+04
-3.006103931300000113e+04
-3.005991019700000106e+04
-3.006240494300000137e+04
-3.005922534100000121e+04
-3.005994953700000042e+04
-3.006091308199999912e+04
-3.006284706400000141e+04
-3.006547581899999932e+04
-3.006185493700000006e+04
-3.006520324899999832e+04
-3.006415971300000092e+04
-3.005661666899999909e+04
-3.006362262399999963e+04
-3.006178653599999961e+04
-3.006540482400000110e+04
-3.006272005699999863e+04
-3.005993861100000140e+04
-3.006103812299999845e+04
-3.006420531000000119e+04
-3.006102551999999923e+04
-3.005913447200000155e+04
-3.006319988699999885e+04
-3.006518501000000106e+04
-3.006332119099999909e+04
-3.005813650300000154e+04
-3.006493413700000019e+04
-3.006498038599999927e+04
-3.006274925799999983e+04
-3.006366124599999966e+04
-3.006349784000000000e+04
-3.006264213499999823e+04
-3.006534254800000053e+04
-3.006169528999999966e+04
-3.006191879799999879e+04
-3.006309040399999867e+04
-3.006209825300000011e+04
-3.006136058200000116e+04
-3.006421212000000014e+04
-3.005977844499999992e+04
-3.006396016999999847e+04
-3.006126926100000128e+04
-3.006660619700000098e+04
-3.006611611600000106e+04
-3.006512134800000058e+04
-3.006633700799999860e+04
-3.006521012100000007e+04
-3.006320647399999871e+04
-3.006525756099999853e+04
-3.006337327200000072e+04
-3.006383299700000134e+04
-3.006040260599999965e+04
-3.006225300000000061e+04
-3.006454492000000027e+04
-3.005862677999999869e+04
-3.006150916800000050e+04
-3.006730178499999965e+04
-3.006562358400000085e+04
-3.006543512600000031e+04
-3.006097746700000062e+04
-3.006205469599999924e+04
-3.006438282400000026e+04
-3.006063231399999859e+04
-3.005955499100000088e+04
-3.006220023900000160e+04
-3.006528884399999879e+04
-3.006163018699999884e+04
-3.005815809200000149e+04
-3.006564139599999908e+04
-3.006019540799999959e+04
-3.006211113399999886e+04
-3.006246116500000062e+04
-3.006461363899999924e+04
-3.006007439399999930e+04
-3.006246820999999909e+04
-3.006703859799999918e+04
-3.006394459199999983e+04
-3.006558274600000004e+04
-3.006428271200000017e+04
-3.006174590099999841e+04
-3.006596776300000056e+04
-3.006585750499999995e+04
-3.006205665299999964e+04
-3.006648022900000069e+04
-3.006008673300000009e+04
-3.006500922200000059e+04
-3.006241127799999958e+04
-3.006584101699999883e+04
-3.006221011699999872e+04
-3.006648324199999843e+04
-3.006102643800000078e+04
-3.006372500199999922e+04
-3.006257766700000138e+04
-3.006176767100000143e+04
-3.006308512699999847e+04
-3.006556022500000108e+04
-3.006451580299999841e+04
-3.006438651100000061e+04
-3.006125829800000065e+04
-3.006269263399999909e+04
-3.005922486099999878e+04
-3.005703651600000012e+04
-3.006558832099999927e+04
-3.006123290199999974e+04
-3.006398490600000150e+04
-3.006333668499999840e+04
-3.006383880599999975e+04
-3.006074496899999940e+04
-3.005653876899999887e+04
-3.006345764300000155e+04
-3.006252287499999875e+04
-3.006309400900000037e+04
-3.006377339099999881e+04
-3.006325189200000023e+04
-3.006025410800000100e+04
-3.005575564999999915e+04
-3.006427851500000179e+04
-3.006247099000000162e+04
-3.006181999899999937e+04
-3.006606158299999879e+04
-3.006111634699999922e+04
-3.006345386399999916e+04
-3.006253102600000057e+04
-3.006658093699999881e+04
-3.006517199999999866e+04
-3.006243289400000140e+04
-3.006231768400000146e+04
-3.006541882099999930e+04
-3.006378934700000173e+04
-3.006730606600000101e+04
-3.006342094599999837e+04
-3.006312047900000107e+04
-3.006486123299999963e+04
-3.006136948800000027e+04
-3.006016358300000138e+04
-3.006055281000000105e+04
-3.005637893899999835e+04
-3.005929166800000166e+04
-3.006608144499999980e+04
-3.006088906399999905e+04
-3.006089712599999984e+04
-3.006394058800000130e+04
-3.006390227999999843e+04
-3.006092259099999865e+04
-3.006029114800000025e+04
-3.006449822700000004e+04
-3.006386806000000070e+04
-3.006373897700000089e+04
-3.006293727900000158e+04
-3.006686643700000059e+04
-3.006432160300000032e+04
-3.006323788000000059e+04
-3.006338141800000085e+04
-3.006411886400000003e+04
-3.006162834400000065e+04
-3.005896602799999891e+04
-3.005949222000000009e+04
-3.006094644999999946e+04
-3.006458386400000018e+04
-3.006514378700000088e+04
-3.006208883499999865e+04
-3.005998054399999819e+04
-3.006365787700000146e+04
-3.006705781800000113e+04
-3.006382290899999862e+04
-3.006460131600000022e+04
-3.006179285399999935e+04
-3.006427768999999898e+04
-3.006200485900000058e+04
-3.006074044000000140e+04
-3.006101169400000072e+04
-3.006167484999999942e+04
-3.006100588399999833e+04
-3.006439679400000023e+04
-3.006276075000000128e+04
-3.006373725099999865e+04
-3.006508976099999927e+04
-3.006534537400000045e+04
-3.006195476000000053e+04
-3.006264540900000065e+04
-3.006113285199999882e+04
-3.006788878200000181e+04
-3.006411016599999857e+04
-3.006616100899999947e+04
-3.006222888900000180e+04
-3.005796299100000033e+04
-3.006157313399999839e+04
-3.006406767100000070e+04
-3.006093242000000100e+04
-3.006151016499999969e+04
-3.005948488699999871e+04
-3.006569975699999850e+04
-3.006381628700000147e+04
-3.006226664700000038e+04
-3.006067912699999943e+04
-3.006298143100000016e+04
-3.006375566400000025e+04
-3.006464512599999944e+04
-3.006282629399999860e+04
-3.006044537599999967e+04
-3.006293711400000029e+04
-3.006774793499999942e+04
-3.006135165399999823e+04
-3.006271159299999999e+04
-3.006518172599999889e+04
-3.006385206499999913e+04
-3.006366806699999870e+04
-3.006381719299999895e+04
-3.005957611399999951e+04
-3.006193539999999848e+04
-3.006398715200000152e+04
-3.006618883999999889e+04
-3.006290544800000134e+04
-3.006309259999999995e+04
-3.006159966999999961e+04
-3.006276335499999914e+04
-3.006381759099999908e+04
-3.006229817900000126e+04
-3.006166123499999958e+04
-3.006341883099999905e+04
-3.006178203999999823e+04
-3.006000032400000055e+04
-3.006269720600000073e+04
-3.005931022300000041e+04
-3.006001086600000053e+04
-3.006274619700000039e+04
-3.006498709199999939e+04
-3.006206836900000053e+04
-3.006282217999999921e+04
-3.006539574899999934e+04
-3.006521274199999971e+04
-3.005879488199999832e+04
-3.006549600099999952e+04
-3.006125771000000168e+04
-3.006060106599999926e+04
-3.006202076799999850e+04
-3.006437528300000122e+04
-3.006520766699999876e+04
-3.006349857200000042e+04
-3.006204787399999987e+04
-3.006317528099999981e+04
-3.006541187899999932e+04
-3.006297675499999968e+04
-3.006159692500000165e+04
-3.006418580899999870e+04
-3.006231323999999950e+04
-3.006354246100000091e+04
-3.006414030600000115e+04
-3.006351314300000013e+04
-3.006421752900000138e+04
-3.006160733700000128e+04
-3.006148813800000062e+04
-3.006103850600000078e+04
-3.006551511200000095e+04
-3.006294900000000052e+04
-3.006433906800000113e+04
-3.006147163799999907e+04
-3.005723586100000102e+04
-3.006187901699999929e+04
-3.006496552800000063e+04
-3.006096666900000127e+04
-3.005944240500000160e+04
-3.006475961699999971e+04
-3.006197113199999876e+04
-3.005996973000000071e+04
-3.005950869900000180e+04
-3.006258841599999869e+04
-3.006055171999999948e+04
-3.006049815600000147e+04
-3.006261113100000148e+04
-3.006534468399999969e+04
-3.006084783400000015e+04
-3.006061477000000014e+04
-3.006358494900000005e+04
-3.006250660499999867e+04
-3.006525776699999915e+04
-3.006346121000000130e+04
-3.005907125299999825e+04
-3.006306537599999865e+04
-3.006265277799999967e+04
-3.006066885099999854e+04
-3.006155881999999838e+04
-3.006341607799999838e+04
-3.006092852900000071e+04
-3.006617458600000100e+04
-3.006311965799999962e+04
-3.006404419200000120e+04
-3.006026759300000049e+04
-3.006210103299999901e+04
-3.006153779299999951e+04
-3.005898983700000099e+04
-3.006219259900000179e+04
-3.006363305000000037e+04
-3.006182858900000065e+04
-3.006536593599999833e+04
-3.006015856899999926e+04
-3.006562203099999897e+04
-3.006269657300000108e+04
-3.006108555100000012e+04
-3.006334722099999999e+04
-3.006317640100000062e+04
-3.006291728700000021e+04
-3.005931702700000096e+04
-3.006345028699999966e+04
-3.005883269300000029e+04
-3.006501331600000049e+04
-3.006561622999999963e+04
-3.006266188500000135e+04
-3.006012478700000065e+04
-3.006528797299999860e+04
-3.006337948600000163e+04
-3.006266819400000168e+04
-3.006259099300000162e+04
-3.005968497099999877e+04
-3.006230989799999952e+04
-3.005956212199999936e+04
-3.006304398800000126e+04
-3.006344226400000116e+04
-3.006402664500000174e+04
-3.006251199800000177e+04
-3.006264761100000032e+04
-3.006340347800000018e+04
-3.005848151599999983e+04
-3.006036988099999871e+04
-3.006188672999999835e+04
-3.006214374099999986e+04
-3.006278293100000155e+04
-3.005928525599999921e+04
-3.006770701199999894e+04
-3.006338628700000118e+04
-3.005947586600000068e+04
-3.006123432500000126e+04
-3.006254181600000084e+04
-3.006390867799999978e+04
-3.006329884300000049e+04
-3.006244422100000156e+04
-3.006473370300000170e+04
-3.006393598399999973e+04
-3.006091540700000041e+04
-3.005935099700000137e+04
-3.006022564000000057e+04
-3.005653790999999910e+04
-3.006020625899999868e+04
-3.006494597100000101e+04
-3.006352915999999823e+04
-3.006571567399999913e+04
-3.006889808400000038e+04
-3.006299123699999836e+04
-3.006195803800000067e+04
-3.006183726200000092e+04
-3.006685798000000068e+04
-3.006545435400000133e+04
-3.006091803200000140e+04
-3.006323604100000011e+04
-3.006448603100000037e+04
-3.005950543599999946e+04
-3.005941809199999989e+04
-3.006500596900000164e+04
-3.006350887800000055e+04
-3.006174557099999947e+04
-3.006030291299999953e+04
-3.006352802000000156e+04
-3.006123807099999976e+04
-3.006518657600000006e+04
-3.006031997200000114e+04
-3.006018907200000103e+04
-3.006215223600000172e+04
-3.005699792600000001e+04
-3.006087618999999904e+04
-3.006278006800000003e+04
-3.006364847799999916e+04
-3.006354419799999960e+04
-3.006460037599999850e+04
-3.006466205199999968e+04
-3.006318671800000084e+04
-3.005917320900000050e+04
-3.006004847099999824e+04
-3.006256648599999971e+04
-3.006084536200000002e+04
-3.006448586599999908e+04
-3.006319848899999852e+04
-3.006227218200000061e+04
-3.006372568300000057e+04
-3.006088204100000075e+04
-3.006592522699999972e+04
-3.006452978000000076e+04
-3.006536968200000047e+04
-3.005706506000000081e+04
-3.006464624199999889e+04
-3.006637150000000111e+04
-3.006439262099999905e+04
-3.006153355200000078e+04
-3.006257965500000137e+04
-3.006146016500000042e+04
-3.006653343300000051e+04
-3.006226120100000117e+04
-3.006804900600000110e+04
-3.006606939599999896e+04
-3.006241697700000077e+04
-3.006433957599999849e+04
-3.006164059700000143e+04
-3.006017995399999927e+04
-3.006357197000000087e+04
-3.006291959000000134e+04
-3.005985940299999857e+04
-3.006285037400000147e+04
-3.006658644799999820e+04
-3.006343977000000086e+04
-3.006018615399999908e+04
-3.006615720900000088e+04
-3.006276675099999920e+04
-3.006013905700000032e+04
-3.006033162900000025e+04
-3.006641228799999953e+04
-3.006172177100000044e+04
-3.006342457400000058e+04
-3.006396114400000079e+04
-3.006499445199999900e+04
-3.006272787800000151e+04
-3.006551731899999868e+04
-3.006299827699999878e+04
-3.006199929899999916e+04
-3.006204869500000132e+04
-3.006305497800000012e+04