-1.625960000000000036e+04 4.878399999999999636e+03 8.116239999999999782e+03 4.878399999999999636e+03 -1.732870000000000073e+04 3.912190000000000055e+03 8.116239999999999782e+03 3.912190000000000055e+03 -1.895000000000000000e+04
-3.333250000000000000e+04 -1.130050000000000000e+04 -6.609119999999999891e+03 -1.130050000000000000e+04 -7.901010000000000582e+04 -1.001629999999999927e+04 -6.609119999999999891e+03 -1.001629999999999927e+04 -5.339269999999999709e+04
-5.531009999999999854e+04 4.218470000000000255e+03 -2.666630000000000109e+03 4.218470000000000255e+03 -3.040709999999999854e+04 -5.179819999999999709e+03 -2.666630000000000109e+03 -5.179819999999999709e+03 -5.559900000000000000e+04
-5.192409999999999854e+04 -6.405520000000000437e+03 4.086369999999999891e+03 -6.405520000000000437e+03 -7.740439999999999418e+04 -2.422400000000000000e+04 4.086369999999999891e+03 -2.422400000000000000e+04 -6.850910000000000582e+04
-2.511440000000000146e+04 -4.713489999999999782e+03 -7.591210000000000036e+03 -4.713489999999999782e+03 -2.773370000000000073e+04 -3.888800000000000182e+03 -7.591210000000000036e+03 -3.888800000000000182e+03 -9.051850000000000364e+03
-5.981290000000000146e+04 -4.889869999999999891e+03 1.518270000000000073e+04 -4.889869999999999891e+03 -3.686509999999999854e+04 -5.616580000000000155e+02 1.518270000000000073e+04 -5.616580000000000155e+02 -4.259880000000000291e+04
-7.294310000000000582e+04 1.054470000000000027e+03 -1.569520000000000073e+04 1.054470000000000027e+03 -5.399140000000000146e+04 6.817430000000000291e+03 -1.569520000000000073e+04 6.817430000000000291e+03 -6.012100000000000000e+04
-4.218100000000000000e+04 -1.184570000000000073e+04 -1.459750000000000000e+03 -1.184570000000000073e+04 -6.796360000000000582e+04 1.410879999999999927e+04 -1.459750000000000000e+03 1.410879999999999927e+04 -6.330559999999999854e+04
-5.983940000000000146e+04 -7.483529999999999745e+03 2.107870000000000073e+04 -7.483529999999999745e+03 -2.243090000000000146e+04 4.286140000000000327e+03 2.107870000000000073e+04 4.286140000000000327e+03 -5.562740000000000146e+04
-3.504690000000000146e+04 9.073329999999999927e+03 7.352600000000000364e+03 9.073329999999999927e+03 -6.559330000000000291e+04 -1.085539999999999964e+04 7.352600000000000364e+03 -1.085539999999999964e+04 -3.727500000000000000e+04
-5.620809999999999854e+04 -2.664420000000000073e+03 -4.016050000000000182e+02 -2.664420000000000073e+03 -5.353800000000000000e+04 -9.773409999999999854e+03 -4.016050000000000182e+02 -9.773409999999999854e+03 -5.561800000000000000e+04
-5.120309999999999854e+04 2.009940000000000055e+03 -6.110130000000000109e+03 2.009940000000000055e+03 -6.183919999999999709e+04 -1.210379999999999927e+04 -6.110130000000000109e+03 -1.210379999999999927e+04 -5.045580000000000291e+04
-3.904309999999999854e+04 -2.634700000000000273e+02 -1.373690000000000055e+03 -2.634700000000000273e+02 -4.321219999999999709e+04 1.089750000000000000e+04 -1.373690000000000055e+03 1.089750000000000000e+04 -2.595740000000000146e+04
-3.101709999999999854e+04 -4.479000000000000000e+03 -2.226329999999999927e+03 -4.479000000000000000e+03 -5.681459999999999854e+04 -1.607760000000000036e+04 -2.226329999999999927e+03 -1.607760000000000036e+04 -7.116189999999999418e+04
-7.060860000000000582e+04 -1.269189999999999964e+04 2.285909999999999854e+03 -1.269189999999999964e+04 -7.103710000000000582e+04 2.030829999999999927e+03 2.285909999999999854e+03 2.030829999999999927e+03 -6.143380000000000291e+04
-7.655119999999999709e+04 -1.069920000000000073e+03 -1.403410000000000082e+03 -1.069920000000000073e+03 -5.668440000000000146e+04 -3.848489999999999782e+03 -1.403410000000000082e+03 -3.848489999999999782e+03 -5.551840000000000146e+04
-5.316840000000000146e+04 -1.268220000000000073e+04 6.469369999999999891e+03 -1.268220000000000073e+04 -5.124200000000000000e+04 -2.337690000000000055e+03 6.469369999999999891e+03 -2.337690000000000055e+03 -2.640029999999999927e+04
-7.875720000000000255e+03 1.001809999999999974e+02 -8.348530000000000655e+03 1.001809999999999974e+02 -4.787200000000000000e+04 1.851650000000000091e+03 -8.348530000000000655e+03 1.851650000000000091e+03 -3.908250000000000000e+04
-6.497080000000000291e+04 6.612359999999999673e+03 -1.820609999999999900e+03 6.612359999999999673e+03 -5.801119999999999709e+04 1.917290000000000146e+04 -1.820609999999999900e+03 1.917290000000000146e+04 -6.754360000000000582e+04
-2.682879999999999927e+04 1.083600000000000000e+04 -4.519159999999999968e+02 1.083600000000000000e+04 -1.864479999999999927e+04 -4.904580000000000268e+02 -4.519159999999999968e+02 -4.904580000000000268e+02 -4.358240000000000146e+04
-3.914750000000000000e+04 6.374779999999999745e+03 -4.732319999999999709e+03 6.374779999999999745e+03 -7.168130000000000291e+04 -1.164450000000000000e+04 -4.732319999999999709e+03 -1.164450000000000000e+04 -6.877419999999999709e+04
-3.919740000000000146e+04 -1.704829999999999927e+04 1.841789999999999964e+03 -1.704829999999999927e+04 -7.985239999999999418e+04 2.117329999999999927e+03 1.841789999999999964e+03 2.117329999999999927e+03 -5.445030000000000291e+04
-2.322220000000000073e+04 7.614020000000000437e+03 8.463860000000000582e+03 7.614020000000000437e+03 -3.993659999999999854e+04 6.281359999999999673e+03 8.463860000000000582e+03 6.281359999999999673e+03 -1.873070000000000073e+04
-6.770200000000000000e+04 -3.426590000000000146e+03 6.323579999999999927e+03 -3.426590000000000146e+03 -7.737280000000000291e+04 -1.156400000000000000e+04 6.323579999999999927e+03 -1.156400000000000000e+04 -6.223769999999999709e+04
-4.569730000000000291e+04 1.470300000000000000e+04 5.306329999999999927e+03 1.470300000000000000e+04 -8.228280000000000291e+04 -1.306889999999999964e+04 5.306329999999999927e+03 -1.306889999999999964e+04 -7.003580000000000291e+04
-4.609590000000000146e+04 1.317729999999999927e+04 1.927309999999999854e+04 1.317729999999999927e+04 -9.252950000000000728e+03 -2.001549999999999955e+03 1.927309999999999854e+04 -2.001549999999999955e+03 -3.547019999999999709e+04
-7.272980000000000291e+04 -1.848379999999999927e+04 -4.611840000000000259e+02 -1.848379999999999927e+04 -8.373680000000000291e+04 -4.300409999999999854e+03 -4.611840000000000259e+02 -4.300409999999999854e+03 -5.631619999999999709e+04
-3.316450000000000000e+04 -1.102960000000000036e+04 6.143380000000000109e+03 -1.102960000000000036e+04 -4.898369999999999709e+04 -2.449940000000000055e+03 6.143380000000000109e+03 -2.449940000000000055e+03 -3.158659999999999854e+04
-5.168740000000000146e+04 -1.015189999999999964e+04 2.789460000000000036e+03 -1.015189999999999964e+04 -3.191170000000000073e+04 5.223510000000000218e+03 2.789460000000000036e+03 5.223510000000000218e+03 -2.760229999999999927e+04
-6.200730000000000291e+04 -4.596100000000000364e+03 -5.134069999999999823e+01 -4.596100000000000364e+03 -1.889090000000000146e+04 -1.655859999999999854e+04 -5.134069999999999823e+01 -1.655859999999999854e+04 -3.875600000000000000e+04
-4.729880000000000291e+04 9.692360000000000582e+03 1.705850000000000000e+04 9.692360000000000582e+03 -3.244200000000000000e+04 -2.514079999999999927e+03 1.705850000000000000e+04 -2.514079999999999927e+03 -3.145350000000000000e+04
-1.814109999999999854e+04 1.556990000000000009e+03 -4.272600000000000364e+03 1.556990000000000009e+03 -2.852000000000000000e+04 3.028369999999999891e+03 -4.272600000000000364e+03 3.028369999999999891e+03 -4.480169999999999709e+04
-6.751300000000000000e+04 -4.311590000000000146e+03 2.330929999999999836e+03 -4.311590000000000146e+03 -4.300969999999999709e+04 -1.176420000000000073e+03 2.330929999999999836e+03 -1.176420000000000073e+03 -7.518880000000000291e+04
-3.713790000000000146e+04 -1.143910000000000082e+03 -7.746710000000000491e+02 -1.143910000000000082e+03 -2.503700000000000000e+04 2.475679999999999836e+03 -7.746710000000000491e+02 2.475679999999999836e+03 -2.448609999999999854e+04
-4.440259999999999854e+04 -7.322010000000000218e+03 4.341010000000000218e+03 -7.322010000000000218e+03 -5.661359999999999854e+04 -7.620930000000000291e+03 4.341010000000000218e+03 -7.620930000000000291e+03 -4.129400000000000000e+04
-6.852660000000000582e+04 -2.216179999999999836e+03 1.218039999999999964e+04 -2.216179999999999836e+03 -7.291160000000000582e+04 -2.992619999999999891e+03 1.218039999999999964e+04 -2.992619999999999891e+03 -7.735189999999999418e+04
-5.687180000000000291e+04 -4.561819999999999709e+03 8.821040000000000873e+03 -4.561819999999999709e+03 -4.994700000000000000e+04 1.189410000000000036e+04 8.821040000000000873e+03 1.189410000000000036e+04 -3.643980000000000291e+04
-3.752490000000000146e+04 1.215410000000000036e+04 -6.687819999999999709e+03 1.215410000000000036e+04 -3.435380000000000291e+04 4.666710000000000036e+03 -6.687819999999999709e+03 4.666710000000000036e+03 -3.459519999999999709e+04
-8.437569999999999709e+04 -1.755370000000000073e+04 -9.347680000000000291e+03 -1.755370000000000073e+04 -6.998280000000000291e+04 -1.459089999999999964e+04 -9.347680000000000291e+03 -1.459089999999999964e+04 -3.733480000000000291e+04
-3.602650000000000000e+04 -6.218109999999999673e+03 -1.290170000000000073e+04 -6.218109999999999673e+03 -2.564429999999999927e+04 -3.965300000000000182e+03 -1.290170000000000073e+04 -3.965300000000000182e+03 -3.962100000000000000e+04
-4.132759999999999854e+04 -1.883720000000000027e+03 -3.672260000000000218e+03 -1.883720000000000027e+03 -4.631750000000000000e+04 1.649670000000000073e+03 -3.672260000000000218e+03 1.649670000000000073e+03 -4.789200000000000000e+04
-5.772390000000000146e+04 -1.606179999999999927e+04 -2.683840000000000146e+03 -1.606179999999999927e+04 -2.723290000000000146e+04 -1.283239999999999964e+04 -2.683840000000000146e+03 -1.283239999999999964e+04 -1.157800000000000000e+04
-7.534750000000000000e+04 -4.528430000000000291e+03 1.101739999999999964e+04 -4.528430000000000291e+03 -6.240280000000000291e+04 -6.902449999999999818e+03 1.101739999999999964e+04 -6.902449999999999818e+03 -3.168350000000000000e+04
-6.482359999999999854e+04 1.492849999999999909e+03 1.677679999999999927e+04 1.492849999999999909e+03 -4.868250000000000000e+04 -8.730120000000000800e+03 1.677679999999999927e+04 -8.730120000000000800e+03 -4.257100000000000000e+04
-5.805209999999999854e+04 -9.794889999999999418e+03 1.609860000000000036e+04 -9.794889999999999418e+03 -6.360800000000000000e+04 1.453620000000000073e+04 1.609860000000000036e+04 1.453620000000000073e+04 -5.712969999999999709e+04
-5.278209999999999854e+04 1.163150000000000000e+04 2.745769999999999982e+03 1.163150000000000000e+04 -4.957230000000000291e+04 -1.724050000000000000e+04 2.745769999999999982e+03 -1.724050000000000000e+04 -6.588789999999999418e+04
-5.290590000000000146e+04 5.256319999999999709e+03 -3.457040000000000077e+02 5.256319999999999709e+03 -7.098839999999999418e+04 -7.075159999999999854e+03 -3.457040000000000077e+02 -7.075159999999999854e+03 -4.286640000000000146e+04
-4.781259999999999854e+04 7.086779999999999745e+03 -9.384020000000000437e+02 7.086779999999999745e+03 -7.618280000000000291e+04 2.661630000000000109e+03 -9.384020000000000437e+02 2.661630000000000109e+03 -6.812469999999999709e+04
-1.703390000000000146e+04 9.001239999999999782e+03 5.180109999999999673e+03 9.001239999999999782e+03 -5.624559999999999854e+04 4.453550000000000182e+03 5.180109999999999673e+03 4.453550000000000182e+03 -1.664590000000000146e+04
-3.847330000000000291e+04 -5.641590000000000146e+03 1.404470000000000073e+04 -5.641590000000000146e+03 -3.776890000000000146e+04 1.140680000000000064e+03 1.404470000000000073e+04 1.140680000000000064e+03 -4.638169999999999709e+04
-4.082700000000000000e+04 -9.145559999999999491e+03 3.984269999999999982e+03 -9.145559999999999491e+03 -4.829809999999999854e+04 -8.037829999999999927e+03 3.984269999999999982e+03 -8.037829999999999927e+03 -5.304940000000000146e+04
-8.312260000000000582e+04 -1.226789999999999964e+04 2.391020000000000073e+04 -1.226789999999999964e+04 -4.512300000000000000e+04 4.802930000000000291e+03 2.391020000000000073e+04 4.802930000000000291e+03 -7.619580000000000291e+04
-4.562050000000000000e+04 -1.804720000000000027e+03 1.407929999999999927e+04 -1.804720000000000027e+03 -5.139130000000000291e+04 -3.262860000000000014e+02 1.407929999999999927e+04 -3.262860000000000014e+02 -8.855200000000000000e+04
-1.533289999999999964e+04 1.874709999999999854e+04 -8.391190000000000509e+03 1.874709999999999854e+04 -3.861230000000000291e+04 -6.670609999999999673e+03 -8.391190000000000509e+03 -6.670609999999999673e+03 -5.620809999999999854e+04
-3.549640000000000146e+04 -8.710559999999999491e+03 -1.289700000000000000e+04 -8.710559999999999491e+03 -5.146759999999999854e+04 -2.122619999999999891e+03 -1.289700000000000000e+04 -2.122619999999999891e+03 -5.569419999999999709e+04
-3.813100000000000000e+04 -1.153579999999999927e+04 -1.114800000000000000e+04 -1.153579999999999927e+04 -5.664809999999999854e+04 -6.399489999999999782e+03 -1.114800000000000000e+04 -6.399489999999999782e+03 -4.834840000000000146e+04
-6.311230000000000291e+04 -8.783819999999999482e+02 1.440229999999999927e+04 -8.783819999999999482e+02 -6.015250000000000000e+04 5.575829999999999927e+03 1.440229999999999927e+04 5.575829999999999927e+03 -5.801059999999999854e+04
-5.077169999999999709e+04 -8.899299999999999272e+03 1.462060000000000036e+04 -8.899299999999999272e+03 -6.957530000000000291e+04 -1.048510000000000036e+04 1.462060000000000036e+04 -1.048510000000000036e+04 -5.152059999999999854e+04
-6.464159999999999854e+04 -1.153329999999999984e+02 5.621729999999999563e+03 -1.153329999999999984e+02 -4.914390000000000146e+04 -6.063939999999999600e+03 5.621729999999999563e+03 -6.063939999999999600e+03 -2.669159999999999854e+04
-7.573270000000000437e+03 -6.109979999999999563e+03 9.344739999999999782e+03 -6.109979999999999563e+03 -1.756529999999999927e+04 -6.535420000000000073e+03 9.344739999999999782e+03 -6.535420000000000073e+03 -1.663609999999999854e+04
-6.779219999999999709e+04 2.090550000000000182e+03 -2.596460000000000036e+03 2.090550000000000182e+03 -4.768200000000000000e+04 -1.274350000000000000e+04 -2.596460000000000036e+03 -1.274350000000000000e+04 -4.592240000000000146e+04
-2.967479999999999927e+04 1.832519999999999982e+03 -7.214619999999999891e+03 1.832519999999999982e+03 -4.720309999999999854e+04 1.919770000000000073e+04 -7.214619999999999891e+03 1.919770000000000073e+04 -3.866150000000000000e+04
-4.899730000000000291e+04 -3.222550000000000182e+03 -1.779229999999999927e+04 -3.222550000000000182e+03 -4.542890000000000146e+04 1.369279999999999927e+04 -1.779229999999999927e+04 1.369279999999999927e+04 -5.161109999999999854e+04
-4.978780000000000291e+04 5.882109999999999673e+03 9.258979999999999563e+03 5.882109999999999673e+03 -3.692119999999999709e+04 -1.249829999999999927e+03 9.258979999999999563e+03 -1.249829999999999927e+03 -5.176730000000000291e+04
-4.983859999999999854e+04 1.125070000000000073e+04 -2.870079999999999927e+03 1.125070000000000073e+04 -6.300940000000000146e+04 1.232660000000000036e+04 -2.870079999999999927e+03 1.232660000000000036e+04 -5.380080000000000291e+04
-3.984669999999999709e+04 -2.326219999999999800e+03 1.394610000000000036e+04 -2.326219999999999800e+03 -6.784310000000000582e+04 -1.152860000000000036e+04 1.394610000000000036e+04 -1.152860000000000036e+04 -3.207529999999999927e+04
-5.182230000000000291e+04 -5.524199999999999818e+03 -1.281460000000000036e+03 -5.524199999999999818e+03 -3.277480000000000291e+04 -5.548909999999999854e+03 -1.281460000000000036e+03 -5.548909999999999854e+03 -8.519750000000000000e+04
-7.005960000000000582e+04 1.870480000000000018e+03 7.240659999999999854e+03 1.870480000000000018e+03 -4.545140000000000146e+04 -1.955799999999999955e+03 7.240659999999999854e+03 -1.955799999999999955e+03 -3.671490000000000146e+04
-8.697289999999999418e+04 2.912150000000000091e+03 -5.335609999999999673e+03 2.912150000000000091e+03 -6.814000000000000000e+04 1.008950000000000000e+04 -5.335609999999999673e+03 1.008950000000000000e+04 -1.030440000000000000e+05
-5.343359999999999854e+04 -2.882880000000000109e+03 2.660050000000000000e+04 -2.882880000000000109e+03 -5.220659999999999854e+04 -1.052570000000000073e+04 2.660050000000000000e+04 -1.052570000000000073e+04 -6.071850000000000000e+04
-6.749589999999999418e+04 -1.374430000000000064e+03 6.311819999999999709e+03 -1.374430000000000064e+03 -4.512409999999999854e+04 -1.982520000000000073e+04 6.311819999999999709e+03 -1.982520000000000073e+04 -4.479719999999999709e+04
-4.429800000000000000e+04 8.528590000000000146e+03 -6.129989999999999782e+03 8.528590000000000146e+03 -6.414819999999999709e+04 3.321260000000000218e+03 -6.129989999999999782e+03 3.321260000000000218e+03 -5.117059999999999854e+04
-5.401850000000000000e+04 1.101960000000000036e+04 8.754250000000000000e+03 1.101960000000000036e+04 -5.751109999999999854e+04 -4.295550000000000068e+02 8.754250000000000000e+03 -4.295550000000000068e+02 -5.782319999999999709e+04
-2.882329999999999927e+04 -9.954500000000000000e+03 9.520829999999999700e+02 -9.954500000000000000e+03 -3.994140000000000146e+04 -1.958150000000000091e+03 9.520829999999999700e+02 -1.958150000000000091e+03 -2.087359999999999854e+04
-6.271959999999999854e+04 -2.892440000000000055e+03 -7.741560000000000400e+03 -2.892440000000000055e+03 -4.341719999999999709e+04 3.759489999999999782e+03 -7.741560000000000400e+03 3.759489999999999782e+03 -4.508330000000000291e+04
-2.560829999999999927e+04 1.296489999999999964e+04 -3.478809999999999945e+03 1.296489999999999964e+04 -4.536940000000000146e+04 1.582600000000000000e+04 -3.478809999999999945e+03 1.582600000000000000e+04 -5.552390000000000146e+04
-7.131780000000000291e+04 -6.441270000000000437e+03 -1.768840000000000146e+04 -6.441270000000000437e+03 -3.000959999999999854e+04 3.221079999999999927e+03 -1.768840000000000146e+04 3.221079999999999927e+03 -5.182109999999999854e+04
-4.853200000000000000e+04 1.667320000000000073e+04 1.563319999999999936e+03 1.667320000000000073e+04 -3.501800000000000000e+04 -3.386429999999999723e+02 1.563319999999999936e+03 -3.386429999999999723e+02 -5.966019999999999709e+04
-4.353909999999999854e+04 -7.529869999999999891e+03 -1.193220000000000073e+04 -7.529869999999999891e+03 -5.697769999999999709e+04 -4.486500000000000000e+03 -1.193220000000000073e+04 -4.486500000000000000e+03 -4.797119999999999709e+04
-6.235480000000000291e+04 -3.957059999999999945e+03 2.309609999999999854e+04 -3.957059999999999945e+03 -6.218019999999999709e+04 2.753570000000000073e+04 2.309609999999999854e+04 2.753570000000000073e+04 -3.800650000000000000e+04
-4.780750000000000000e+04 -2.003910000000000082e+03 6.469810000000000400e+03 -2.003910000000000082e+03 -4.862480000000000291e+04 6.159850000000000364e+03 6.469810000000000400e+03 6.159850000000000364e+03 -6.838430000000000291e+04
-6.098219999999999709e+04 -1.203929999999999927e+04 1.067250000000000000e+04 -1.203929999999999927e+04 -6.595660000000000582e+04 -2.442740000000000146e+04 1.067250000000000000e+04 -2.442740000000000146e+04 -5.092880000000000291e+04
-5.626169999999999709e+04 2.793139999999999873e+03 6.219729999999999563e+02 2.793139999999999873e+03 -5.104690000000000146e+04 -1.001310000000000036e+04 6.219729999999999563e+02 -1.001310000000000036e+04 -6.665180000000000291e+04
-5.663009999999999854e+04 1.580120000000000073e+04 6.435390000000000327e+03 1.580120000000000073e+04 -8.715089999999999418e+04 -7.709489999999999782e+03 6.435390000000000327e+03 -7.709489999999999782e+03 -6.280559999999999854e+04
-3.747400000000000000e+04 8.958880000000000337e+02 -4.957829999999999927e+03 8.958880000000000337e+02 -2.365850000000000000e+04 -1.377079999999999927e+03 -4.957829999999999927e+03 -1.377079999999999927e+03 -3.902600000000000000e+04
-6.630639999999999418e+04 -5.498010000000000218e+03 -1.895159999999999854e+04 -5.498010000000000218e+03 -4.297259999999999854e+04 9.044049999999999272e+03 -1.895159999999999854e+04 9.044049999999999272e+03 -6.557410000000000582e+04
-4.974880000000000291e+04 -6.132489999999999782e+03 -8.268649999999999636e+03 -6.132489999999999782e+03 -3.358030000000000291e+04 1.131879999999999927e+04 -8.268649999999999636e+03 1.131879999999999927e+04 -4.130480000000000291e+04
-6.883039999999999418e+04 1.295400000000000000e+04 -2.548909999999999854e+04 1.295400000000000000e+04 -4.139369999999999709e+04 -3.549570000000000164e+03 -2.548909999999999854e+04 -3.549570000000000164e+03 -5.120590000000000146e+04
-5.988180000000000291e+04 -4.912970000000000255e+03 2.047890000000000100e+03 -4.912970000000000255e+03 -7.228430000000000291e+04 2.024100000000000000e+04 2.047890000000000100e+03 2.024100000000000000e+04 -4.988830000000000291e+04
-6.070809999999999854e+04 -5.103180000000000291e+03 -1.269320000000000073e+04 -5.103180000000000291e+03 -7.698089999999999418e+04 -1.786480000000000018e+03 -1.269320000000000073e+04 -1.786480000000000018e+03 -7.272889999999999418e+04
-2.083779999999999927e+04 -5.117149999999999636e+03 5.880350000000000364e+03 -5.117149999999999636e+03 -3.130059999999999854e+04 -5.442999999999999972e+01 5.880350000000000364e+03 -5.442999999999999972e+01 -4.647080000000000291e+04
-4.266430000000000291e+04 4.451050000000000182e+03 -1.151239999999999964e+04 4.451050000000000182e+03 -2.766100000000000000e+04 6.821840000000000146e+03 -1.151239999999999964e+04 6.821840000000000146e+03 -5.381019999999999709e+04
-4.010680000000000291e+04 -1.074089999999999964e+04 -2.028470000000000027e+03 -1.074089999999999964e+04 -5.693019999999999709e+04 9.010950000000000728e+03 -2.028470000000000027e+03 9.010950000000000728e+03 -4.469519999999999709e+04
-4.206380000000000291e+04 1.457960000000000036e+04 -1.302640000000000100e+03 1.457960000000000036e+04 -6.028319999999999709e+04 1.481660000000000036e+04 -1.302640000000000100e+03 1.481660000000000036e+04 -5.925830000000000291e+04
-2.135209999999999854e+04 -4.593739999999999782e+03 2.711789999999999964e+03 -4.593739999999999782e+03 -5.817490000000000146e+04 1.115989999999999964e+04 2.711789999999999964e+03 1.115989999999999964e+04 -4.430919999999999709e+04
-3.152020000000000073e+04 -1.347359999999999900e+03 3.103389999999999873e+03 -1.347359999999999900e+03 -4.362630000000000291e+04 7.548699999999999818e+03 3.103389999999999873e+03 7.548699999999999818e+03 -3.176559999999999854e+04
-4.203959999999999854e+04 1.018029999999999927e+04 -9.055969999999999345e+03 1.018029999999999927e+04 -1.990250000000000000e+04 -3.626210000000000036e+03 -9.055969999999999345e+03 -3.626210000000000036e+03 -2.816629999999999927e+04
-4.669209999999999854e+04 -9.894040000000000873e+03 2.456409999999999854e+03 -9.894040000000000873e+03 -4.449330000000000291e+04 -2.223229999999999927e+04 2.456409999999999854e+03 -2.223229999999999927e+04 -5.797040000000000146e+04
-2.474179999999999927e+04 3.237850000000000250e+02 -3.927199999999999818e+03 3.237850000000000250e+02 -4.701219999999999709e+04 2.887730000000000246e+02 -3.927199999999999818e+03 2.887730000000000246e+02 -3.445619999999999709e+04
-4.799990000000000146e+04 -1.170039999999999964e+04 6.715329999999999927e+03 -1.170039999999999964e+04 -8.202389999999999418e+04 1.002729999999999927e+04 6.715329999999999927e+03 1.002729999999999927e+04 -4.516359999999999854e+04
-2.985979999999999927e+04 -3.824809999999999945e+02 -2.827559999999999945e+03 -3.824809999999999945e+02 -4.112569999999999709e+04 -3.266090000000000146e+03 -2.827559999999999945e+03 -3.266090000000000146e+03 -3.994309999999999854e+04
-1.787850000000000000e+04 1.339520000000000073e+04 -8.099470000000000255e+03 1.339520000000000073e+04 -1.074150000000000000e+04 -4.402060000000000400e+03 -8.099470000000000255e+03 -4.402060000000000400e+03 -5.843309999999999854e+04
-8.076989999999999418e+04 5.724850000000000364e+03 1.803400000000000091e+03 5.724850000000000364e+03 -6.921119999999999709e+04 9.683379999999999200e+03 1.803400000000000091e+03 9.683379999999999200e+03 -4.967590000000000146e+04
-2.515579999999999927e+04 3.001150000000000091e+03 -2.323090000000000146e+04 3.001150000000000091e+03 -2.867409999999999854e+04 2.822119999999999891e+03 -2.323090000000000146e+04 2.822119999999999891e+03 -5.785040000000000146e+04
-3.980109999999999854e+04 -2.984380000000000109e+03 -1.742540000000000146e+04 -2.984380000000000109e+03 -7.860550000000000000e+04 4.429130000000000109e+03 -1.742540000000000146e+04 4.429130000000000109e+03 -4.577469999999999709e+04
-6.447700000000000000e+04 -5.672779999999999745e+03 5.945520000000000437e+03 -5.672779999999999745e+03 -6.768139999999999418e+04 -1.332279999999999927e+04 5.945520000000000437e+03 -1.332279999999999927e+04 -3.174929999999999927e+04
-5.982150000000000000e+04 -7.605779999999999745e+03 -6.623239999999999782e+03 -7.605779999999999745e+03 -5.871730000000000291e+04 -3.390099999999999909e+03 -6.623239999999999782e+03 -3.390099999999999909e+03 -6.799669999999999709e+04
-2.626140000000000146e+04 -3.538389999999999873e+03 1.386270000000000073e+04 -3.538389999999999873e+03 -6.315330000000000291e+04 -7.260220000000000255e+03 1.386270000000000073e+04 -7.260220000000000255e+03 -1.187600000000000000e+04
-4.216630000000000291e+04 7.618720000000000255e+03 -1.328110000000000036e+04 7.618720000000000255e+03 -6.792980000000000291e+04 4.102839999999999918e+02 -1.328110000000000036e+04 4.102839999999999918e+02 -5.723529999999999745e+03
-2.594190000000000146e+04 -1.137879999999999927e+04 -2.587630000000000109e+03 -1.137879999999999927e+04 -3.440180000000000291e+04 -1.298329999999999927e+04 -2.587630000000000109e+03 -1.298329999999999927e+04 -5.944800000000000000e+04
-2.499479999999999927e+04 -1.334760000000000036e+04 6.290630000000000109e+03 -1.334760000000000036e+04 -3.482619999999999709e+04 -7.799520000000000437e+03 6.290630000000000109e+03 -7.799520000000000437e+03 -3.360540000000000146e+04
-4.470719999999999709e+04 -6.287979999999999563e+03 -1.441329999999999927e+04 -6.287979999999999563e+03 -2.358079999999999927e+04 1.203420000000000073e+04 -1.441329999999999927e+04 1.203420000000000073e+04 -5.003419999999999709e+04
-7.799360000000000582e+04 -7.829090000000000146e+03 5.982739999999999782e+03 -7.829090000000000146e+03 -6.291990000000000146e+04 -1.587189999999999964e+04 5.982739999999999782e+03 -1.587189999999999964e+04 -4.604640000000000146e+04
-4.928909999999999854e+04 1.383270000000000073e+04 1.095310000000000036e+04 1.383270000000000073e+04 -6.367980000000000291e+04 -9.255450000000000728e+03 1.095310000000000036e+04 -9.255450000000000728e+03 -5.839000000000000000e+04
-8.415860000000000582e+04 -1.131910000000000036e+04 7.892199999999999818e+03 -1.131910000000000036e+04 -7.368950000000000000e+04 -5.379149999999999636e+03 7.892199999999999818e+03 -5.379149999999999636e+03 -6.361490000000000146e+04
-5.632280000000000291e+04 -4.407210000000000036e+03 3.307280000000000200e+03 -4.407210000000000036e+03 -5.025059999999999854e+04 1.337650000000000000e+04 3.307280000000000200e+03 1.337650000000000000e+04 -3.894180000000000291e+04
-3.692940000000000146e+04 1.432879999999999927e+04 -1.986000000000000000e+04 1.432879999999999927e+04 -3.604090000000000146e+04 2.221179999999999836e+03 -1.986000000000000000e+04 2.221179999999999836e+03 -3.269420000000000073e+04
-5.804280000000000291e+04 2.334900000000000091e+03 3.002329999999999927e+03 2.334900000000000091e+03 -4.678680000000000291e+04 -1.465620000000000073e+04 3.002329999999999927e+03 -1.465620000000000073e+04 -5.169400000000000000e+04
-3.999780000000000291e+04 2.194850000000000136e+02 -3.734630000000000109e+03 2.194850000000000136e+02 -5.209400000000000000e+04 1.251700000000000000e+04 -3.734630000000000109e+03 1.251700000000000000e+04 -2.423190000000000146e+04
-4.223040000000000146e+04 -5.891090000000000146e+03 8.102270000000000437e+03 -5.891090000000000146e+03 -6.111909999999999854e+04 8.442680000000000291e+03 8.102270000000000437e+03 8.442680000000000291e+03 -2.824709999999999854e+04
-4.218850000000000000e+04 -4.343810000000000400e+03 -1.525300000000000000e+04 -4.343810000000000400e+03 -3.529469999999999709e+04 -8.694079999999999927e+03 -1.525300000000000000e+04 -8.694079999999999927e+03 -4.605509999999999854e+04
-5.334590000000000146e+04 -2.050109999999999854e+04 1.063150000000000091e+03 -2.050109999999999854e+04 -5.389990000000000146e+04 2.644559999999999945e+03 1.063150000000000091e+03 2.644559999999999945e+03 -2.490829999999999927e+04
-3.411640000000000146e+04 -5.014029999999999745e+03 1.639520000000000073e+04 -5.014029999999999745e+03 -4.479730000000000291e+04 -3.465719999999999800e+03 1.639520000000000073e+04 -3.465719999999999800e+03 -7.396460000000000582e+04
-6.181790000000000146e+04 -8.104920000000000073e+03 -8.184210000000000036e+03 -8.104920000000000073e+03 -2.776209999999999854e+04 -1.514920000000000073e+03 -8.184210000000000036e+03 -1.514920000000000073e+03 -5.048830000000000291e+04
-4.205940000000000146e+04 -1.842059999999999854e+04 5.566130000000000109e+03 -1.842059999999999854e+04 -5.550000000000000000e+04 -9.965099999999999909e+02 5.566130000000000109e+03 -9.965099999999999909e+02 -5.800730000000000291e+04
-8.379610000000000582e+04 2.108940000000000055e+03 8.327340000000000146e+03 2.108940000000000055e+03 -2.751929999999999927e+04 1.352760000000000036e+04 8.327340000000000146e+03 1.352760000000000036e+04 -4.383480000000000291e+04
-4.606880000000000291e+04 1.030200000000000000e+04 -2.761659999999999854e+03 1.030200000000000000e+04 -3.354490000000000146e+04 1.546910000000000036e+04 -2.761659999999999854e+03 1.546910000000000036e+04 -4.813230000000000291e+04
-3.822150000000000000e+04 1.660200000000000000e+04 4.302029999999999745e+03 1.660200000000000000e+04 -3.956600000000000000e+04 -1.405470000000000027e+03 4.302029999999999745e+03 -1.405470000000000027e+03 -3.401109999999999854e+04
-4.786450000000000000e+04 -1.043470000000000073e+04 1.190549999999999955e+03 -1.043470000000000073e+04 -5.289840000000000146e+04 4.539159999999999854e+03 1.190549999999999955e+03 4.539159999999999854e+03 -2.193509999999999854e+04