-1.017022958860000017e+03
-1.011337229959999945e+03
-1.012761423550000018e+03
-1.012574897449999980e+03
-1.009602358320000008e+03
-1.009050631889999977e+03
-1.012045447859999967e+03
-1.009112674289999973e+03
-1.011227630500000032e+03
-1.009552569599999970e+03
-1.010081158120000055e+03
-1.008849710429999959e+03
-1.014018799690000037e+03
-1.010716986049999946e+03
-1.013165268210000022e+03
-1.014210065330000020e+03
-1.010070228010000051e+03
-1.007365985040000055e+03
-1.010280697880000048e+03
-1.012054970779999962e+03
-1.012934841519999964e+03
-1.013234292879999998e+03
-1.009704503150000050e+03
-1.012301841279999962e+03
-1.010386174340000025e+03
-1.013953283960000022e+03
-1.010057783530000052e+03
-1.013476877759999979e+03
-1.014530293690000008e+03
-1.008473936869999989e+03
-1.009572669079999969e+03
-1.011611353310000027e+03
-1.015881687560000046e+03
-1.014271930480000037e+03
-1.009763597829999981e+03
-1.010099225950000005e+03
-1.010218927610000037e+03
-1.009264690409999957e+03
-1.011525057189999984e+03
-1.008911602140000014e+03
-1.010604134230000000e+03
-1.009030661590000022e+03
-1.013434341140000015e+03
-1.013028833439999971e+03
-1.014143017660000055e+03
-1.012549123630000054e+03
-1.010205561849999981e+03
-1.008412135029999945e+03
-1.009885660519999988e+03
-1.009338141319999977e+03
-1.010218215269999973e+03
-1.011822973820000016e+03
-1.006597113229999991e+03
-1.009342652400000020e+03
-1.011575061849999997e+03
-1.007440238229999977e+03
-1.010024643330000004e+03
-1.008602346300000022e+03
-1.012817524649999996e+03
-1.010364202190000015e+03
-1.008252709679999953e+03
-1.006810117659999946e+03
-1.014297135099999991e+03
-1.011933111550000035e+03
-1.007855471080000029e+03
-1.009274372599999992e+03
-1.008712025759999960e+03
-1.008278553630000033e+03
-1.005298861470000020e+03
-1.009585849720000056e+03
-1.011012279970000009e+03
-1.012260109919999991e+03
-1.010620568329999969e+03
-1.012633602509999946e+03
-1.007469841309999993e+03
-1.008481419110000047e+03
-1.010545018450000043e+03
-1.010733416239999997e+03
-1.012963045709999960e+03
-1.012092213359999960e+03
-1.009592038809999963e+03
-1.009462050190000014e+03
-1.011605163400000038e+03
-1.011570364820000009e+03
-1.012398465190000024e+03
-1.012610711229999993e+03
-1.014044475069999976e+03
-1.012809929399999987e+03
-1.011008574479999993e+03
-1.011375701469999967e+03
-1.008709377769999946e+03
-1.013837825980000048e+03
-1.009508362720000036e+03
-1.011642824990000008e+03
-1.009296031989999960e+03
-1.009845961160000002e+03
-1.013303453900000022e+03
-1.005510409930000037e+03
-1.010822424459999979e+03
-1.012191457870000022e+03
-1.009549666569999999e+03
-1.010713066570000024e+03
-1.009793149309999990e+03
-1.009619527609999977e+03
-1.008979598499999952e+03
-1.009632864769999969e+03
-1.012944700910000051e+03
-1.011996263949999957e+03
-1.014090486589999955e+03
-1.008882732000000033e+03
-1.009439758230000052e+03
-1.013259183000000007e+03
-1.012165460299999950e+03
-1.011250112859999945e+03
-1.011221752280000032e+03
-1.012102414849999946e+03
-1.013230960729999993e+03
-1.012069814579999957e+03
-1.007184148339999979e+03
-1.011101663529999996e+03
-1.012223925610000038e+03
-1.010070568330000015e+03
-1.012253259120000052e+03
-1.013274393690000011e+03
-1.010484113330000014e+03
-1.012863308589999974e+03
-1.005856692230000021e+03
-1.009366667639999946e+03
-1.007490742080000018e+03
-1.011816475230000037e+03
-1.012973516850000010e+03
-1.010024487799999974e+03
-1.010076596210000048e+03
-1.009990123550000021e+03
-1.009722462510000014e+03
-1.010294035770000050e+03
-1.010445341259999964e+03
-1.011467570040000055e+03
-1.011780296600000042e+03
-1.009932825950000051e+03
-1.012310857940000005e+03
-1.009408117299999958e+03
-1.012480423439999981e+03
-1.012122027369999955e+03
-1.010897569539999949e+03
-1.010293030499999986e+03
-1.012789540360000046e+03
-1.013380622620000054e+03
-1.012800426470000048e+03
-1.012127740119999999e+03
-1.010382511150000028e+03
-1.008899564629999986e+03
-1.010524050330000023e+03
-1.006368133820000025e+03
-1.009775646670000015e+03
-1.006119888899999978e+03
-1.013010189879999984e+03
-1.010486620769999945e+03
-1.010741833169999950e+03
-1.011248743920000038e+03
-1.012400031130000002e+03
-1.014899621329999945e+03
-1.011363182680000023e+03
-1.008312064810000038e+03
-1.013531521269999985e+03
-1.013842185500000028e+03
-1.011531054609999956e+03
-1.009863241190000053e+03
-1.012607081419999986e+03
-1.010412841810000032e+03
-1.012886407429999963e+03
-1.010529388479999966e+03
-1.010106379130000050e+03
-1.010150284039999974e+03
-1.009678256560000023e+03
-1.010177835319999986e+03
-1.011502764759999991e+03
-1.007401999960000012e+03
-1.007197085949999973e+03
-1.012013785279999979e+03
-1.011687353489999964e+03
-1.007228595229999996e+03
-1.013311827770000036e+03
-1.008778944010000032e+03
-1.010007680560000040e+03
-1.010929105710000044e+03
-1.009006767210000021e+03
-1.010313860090000048e+03
-1.013046188750000056e+03
-1.012204161920000047e+03
-1.008439691150000044e+03
-1.013651741570000013e+03
-1.011053488799999968e+03
-1.007724619080000025e+03
-1.008687401199999954e+03
-1.011150723230000040e+03
-1.017429739970000014e+03
-1.008161828730000025e+03
-1.013910010299999954e+03
-1.011397220019999963e+03
-1.011230917810000051e+03
-1.011265397779999944e+03
-1.007445622810000032e+03
-1.009168826429999967e+03
-1.014866100370000026e+03
-1.012615440509999985e+03
-1.006489957150000009e+03
-1.009210303240000030e+03
-1.012695615760000010e+03
-1.013357303480000041e+03
-1.012386960810000005e+03
-1.009918019449999974e+03
-1.012469025549999969e+03
-1.009285090650000029e+03
-1.009610603289999972e+03
-1.008284766249999961e+03
-1.008818308239999965e+03
-1.009760729029999993e+03
-1.011086010900000019e+03
-1.009172043120000012e+03
-1.010900619649999953e+03
-1.010293134099999975e+03
-1.009248303350000015e+03
-1.011806277969999996e+03
-1.008468540849999954e+03
-1.011869109470000012e+03
-1.013037613549999946e+03
-1.010929613740000036e+03
-1.012231369439999980e+03
-1.007388202760000013e+03
-1.012354791480000017e+03
-1.006550434300000006e+03
-1.011485852779999959e+03
-1.012502192369999989e+03
-1.010294846089999965e+03
-1.012141986210000027e+03
-1.010266842360000055e+03
-1.010674177890000010e+03
-1.012317398170000047e+03
-1.009755591239999944e+03
-1.011269145139999978e+03
-1.011822449949999964e+03
-1.014605846459999952e+03
-1.010685848589999978e+03
-1.010613403309999967e+03
-1.012528374200000030e+03
-1.008652471239999954e+03
-1.011150062769999977e+03
-1.013514161469999976e+03
-1.014044412169999987e+03
-1.008553561339999987e+03
-1.012593312889999993e+03
-1.009931375350000053e+03
-1.011633635199999958e+03
-1.008217826280000054e+03
-1.010409679399999959e+03
-1.010504411109999978e+03
-1.008480599989999973e+03
-1.014357769540000049e+03
-1.011788859330000037e+03
-1.009688434339999958e+03
-1.009046245720000002e+03
-1.009445898619999980e+03
-1.011922505210000054e+03
-1.007111014700000055e+03
-1.011165885870000011e+03
-1.007417155060000027e+03
-1.010881755440000006e+03
-1.009030532890000018e+03
-1.010057397759999958e+03
-1.013188070850000031e+03
-1.012086582209999960e+03
-1.010613735109999993e+03
-1.012700493759999972e+03
-1.010033665449999944e+03
-1.009783205459999976e+03
-1.007596851050000055e+03
-1.008485563879999972e+03
-1.007777657080000040e+03
-1.010478993299999956e+03
-1.012762847800000031e+03
-1.011448511589999953e+03
-1.009678044979999981e+03
-1.006411395599999992e+03
-1.007352399320000018e+03
-1.012732659679999983e+03
-1.009575415959999987e+03
-1.010931377129999987e+03
-1.008423683370000049e+03
-1.007947378980000053e+03
-1.009701213759999973e+03
-1.009595624599999951e+03
-1.009823962329999972e+03
-1.009647356130000048e+03
-1.011794976049999946e+03
-1.011183016840000050e+03
-1.011543078759999958e+03
-1.009265733920000002e+03
-1.012677607240000043e+03
-1.012097793379999985e+03
-1.012444033610000020e+03
-1.003898663230000011e+03
-1.010875817630000029e+03
-1.011765082209999946e+03
-1.006664225620000025e+03
-1.011999013099999956e+03
-1.012702019690000043e+03
-1.009665032170000018e+03
-1.010490848690000007e+03
-1.012954597130000025e+03
-1.007924253980000003e+03
-1.008830955099999983e+03
-1.009349838169999998e+03
-1.011303339980000032e+03
-1.010062570929999993e+03
-1.008190826000000015e+03
-1.009749559630000022e+03
-1.011033416170000010e+03
-1.011340489079999998e+03
-1.010905996360000017e+03
-1.010187942860000021e+03
-1.010875556060000008e+03
-1.010058982280000009e+03
-1.011274982020000039e+03
-1.013086024599999973e+03
-1.012007973770000035e+03
-1.011718192660000000e+03
-1.014466272399999980e+03
-1.009241565720000040e+03
-1.008476687510000033e+03
-1.009610198080000032e+03
-1.006765151100000026e+03
-1.014892791129999978e+03
-1.013555719169999975e+03
-1.011804339049999953e+03
-1.012393236369999954e+03
-1.007354741399999966e+03
-1.013370154769999999e+03
-1.009602248759999952e+03
-1.010451461969999968e+03
-1.005349196559999996e+03
-1.010986392249999994e+03
-1.009384974189999980e+03
-1.010592147759999989e+03
-1.008371886000000018e+03
-1.011345620420000046e+03
-1.011022528749999992e+03
-1.010393104419999986e+03
-1.009688646790000007e+03
-1.010379135440000027e+03
-1.011477517960000000e+03
-1.013895564970000009e+03
-1.011036809879999964e+03
-1.013288018719999968e+03
-1.005280946080000035e+03
-1.008230041179999944e+03
-1.006772583100000020e+03
-1.010312104849999969e+03
-1.008305826450000040e+03
-1.010303250560000038e+03
-1.011525608089999992e+03
-1.010792762759999960e+03
-1.012066011709999998e+03
-1.010087310369999955e+03
-1.007286509109999997e+03
-1.012698856169999999e+03
-1.006202296670000010e+03
-1.012018296930000020e+03
-1.009061574189999988e+03
-1.003880330670000035e+03
-1.012016821230000005e+03
-1.010499816630000055e+03
-1.011227309180000020e+03
-1.010941669380000008e+03
-1.009744928240000036e+03
-1.012455919659999950e+03
-1.009135246390000020e+03
-1.012690154359999951e+03
-1.006082774689999951e+03
-1.016681278030000044e+03
-1.008828878789999976e+03
-1.010576416709999990e+03
-1.011431909170000040e+03
-1.013927758739999945e+03
-1.011230889759999968e+03
-1.012134833729999968e+03
-1.011713443849999976e+03
-1.013999737890000006e+03
-1.011993923239999958e+03
-1.010654571260000012e+03
-1.009255438059999960e+03
-1.012481263109999986e+03
-1.009749557529999947e+03
-1.006929716559999974e+03
-1.009333824589999949e+03
-1.012787019790000045e+03
-1.011922558679999952e+03
-1.007928302039999949e+03
-1.014749658039999986e+03
-1.013211556480000013e+03
-1.012266938890000006e+03
-1.011128442759999984e+03
-1.007493117750000010e+03
-1.011244759250000016e+03
-1.009798787719999950e+03
-1.011212280080000028e+03
-1.010692748209999991e+03
-1.013889090089999968e+03
-1.009149901580000005e+03
-1.010865634050000040e+03
-1.009998996390000002e+03
-1.010000041300000021e+03
-1.013930259249999949e+03
-1.008900740909999968e+03
-1.011485817360000055e+03
-1.011460495919999971e+03
-1.013416462460000048e+03
-1.012713922779999962e+03
-1.004855387049999990e+03
-1.013555892289999974e+03
-1.010410527030000026e+03
-1.010227511789999994e+03
-1.010094451700000036e+03
-1.002663064899999995e+03
-1.012492690599999946e+03
-1.009885348990000011e+03
-1.012437765349999950e+03
-1.010783105340000020e+03
-1.012695257620000007e+03
-1.010547227189999944e+03
-1.009505302499999971e+03
-1.010268258199999991e+03
-1.009852536180000016e+03
-1.008176087499999994e+03
-1.008638719079999987e+03
-1.012224968089999948e+03
-1.009899978049999959e+03
-1.009054631640000025e+03
-1.008778468370000041e+03
-1.010874875650000035e+03
-1.013464125879999983e+03
-1.011472186879999981e+03
-1.007762201780000055e+03
-1.007644889609999950e+03
-1.009356470439999953e+03
-1.014212750130000018e+03
-1.010727840789999959e+03
-1.009849091980000026e+03
-1.010660206369999969e+03
-1.009998592909999957e+03
-1.009971705690000022e+03
-1.005897769769999968e+03
-1.013431220550000035e+03
-1.009861274750000007e+03
-1.011092973870000037e+03
-1.009237921819999997e+03
-1.012338312009999981e+03
-1.007622352149999983e+03
-1.011209705740000004e+03
-1.009935836119999976e+03
-1.013896219660000042e+03
-1.012717817139999966e+03
-1.009352520440000035e+03
-1.008850520120000056e+03
-1.011767773590000047e+03
-1.012186733720000007e+03
-1.010385192429999961e+03
-1.009602434249999988e+03
-1.011753837200000021e+03
-1.012173486089999983e+03
-1.010735699550000049e+03
-1.012062524579999945e+03
-1.010604111259999968e+03
-1.011896056789999989e+03
-1.009930255620000025e+03
-1.013976145050000014e+03
-1.012238004509999996e+03
-1.012856234210000025e+03
-1.010567418380000049e+03
-1.008526694359999965e+03
-1.009288361939999959e+03
-1.013234998389999987e+03
-1.008877784300000030e+03
-1.011550649010000029e+03
-1.010383782910000036e+03
-1.012165340040000046e+03
-1.010640107390000026e+03
-1.011845938479999973e+03
-1.009129165370000010e+03
-1.009944058889999951e+03
-1.013490274170000021e+03
-1.009883832040000016e+03
-1.007928748240000004e+03
-1.012572137890000022e+03
-1.009499763089999988e+03
-1.009983044350000000e+03
-1.010002799109999955e+03
-1.015398927100000037e+03
-1.011831212520000008e+03
-1.009822792899999968e+03
-1.014048643029999994e+03
-1.012695449550000035e+03
-1.012441543690000003e+03
-1.011219336709999993e+03
-1.011905386229999976e+03
-1.010268065139999976e+03
-1.009696366580000017e+03
-1.008071881530000041e+03
-1.011158920340000009e+03
-1.012637545179999961e+03
-1.011053252929999985e+03
-1.012794059100000027e+03
-1.010612029509999957e+03
-1.014001427619999959e+03
-1.010370909900000015e+03
-1.007413194159999989e+03
-1.010172334729999989e+03
-1.011070526780000023e+03
-1.009174135709999973e+03
-1.010709412189999966e+03
-1.009954195099999993e+03
-1.009792767649999973e+03
-1.008063463419999948e+03
-1.013394647100000043e+03
-1.011172076769999990e+03
-1.010120133010000018e+03
-1.015217131500000050e+03
-1.010455475969999952e+03
-1.013948710089999963e+03
-1.009961692810000045e+03
-1.010222230399999944e+03
-1.010660321879999969e+03
-1.006583092500000021e+03
-1.009600241750000009e+03
-1.011929972570000018e+03
-1.010775472329999957e+03
-1.009989657709999960e+03
-1.008439944110000056e+03
-1.011221702309999955e+03
-1.013330374499999948e+03
-1.010299575229999959e+03
-1.010979391790000022e+03
-1.008689995199999998e+03
-1.009481475369999998e+03
-1.010599224329999970e+03
-1.011189882949999969e+03
-1.008331088850000015e+03
-1.014300915809999992e+03
-1.009151627459999986e+03
-1.010114630600000055e+03
-1.014349492759999976e+03
-1.007969504069999971e+03
-1.011626163809999980e+03
-1.008869409160000032e+03
-1.010978550649999988e+03
-1.010279555449999975e+03
-1.008479301029999988e+03
-1.009157391910000001e+03
-1.007815891540000052e+03
-1.007587239830000044e+03
-1.011869317219999971e+03
-1.008964804709999953e+03
-1.007076750250000032e+03
-1.013482848399999966e+03
-1.010096530250000001e+03
-1.006088827160000051e+03
-1.012551593199999957e+03
-1.007921037889999980e+03
-1.013598161269999991e+03
-1.010048393850000025e+03
-1.010099347019999982e+03
-1.012374313830000006e+03
-1.010548827269999947e+03
-1.012585452519999990e+03
-1.008303941030000033e+03
-1.011222344199999952e+03
-1.013841903809999963e+03
-1.013586603169999989e+03
-1.010474477520000050e+03
-1.009985881429999949e+03
-1.012777145300000029e+03
-1.011971166359999984e+03
-1.011326580379999996e+03
-1.009899930179999956e+03
-1.007079369520000000e+03
-1.013276937979999957e+03
-1.012775221320000014e+03
-1.011321762229999990e+03
-1.010090487700000040e+03
-1.011830696659999944e+03
-1.009148055099999965e+03
-1.011770314719999988e+03
-1.003640761529999963e+03
-1.009669195380000019e+03
-1.011580178520000004e+03
-1.012944872010000040e+03
-1.011108610330000033e+03
-1.009742805220000037e+03
-1.010725509859999988e+03
-1.008857722490000015e+03
-1.014330046769999967e+03
-1.008206915729999992e+03
-1.013398721690000002e+03
-1.007395468459999961e+03
-1.009549641090000023e+03
-1.008121319689999950e+03
-1.011624431989999948e+03
-1.010606591829999957e+03
-1.012476447060000055e+03
-1.014173092529999963e+03
-1.007768727409999997e+03
-1.011913276289999999e+03
-1.011880847760000051e+03
-1.009411069200000043e+03
-1.011768649760000017e+03
-1.012882711569999969e+03
-1.011980807059999961e+03
-1.008705523510000035e+03
-1.012447716489999948e+03
-1.006955712309999967e+03
-1.010433513100000027e+03
-1.014830132660000004e+03
-1.009695841650000034e+03
-1.008449234759999968e+03
-1.013792724460000045e+03
-1.014971047730000009e+03
-1.012921636730000046e+03
-1.013913013699999965e+03
-1.014396015379999994e+03
-1.010381544670000039e+03
-1.012382346230000053e+03
-1.006411267380000027e+03
-1.009637732049999954e+03
-1.011000271569999995e+03
-1.011378885729999979e+03
-1.010347954569999956e+03
-1.011986875810000015e+03
-1.011728281339999967e+03
-1.008242985100000055e+03
-1.012177464269999973e+03
-1.010021099439999944e+03
-1.012520959100000027e+03
-1.007366181569999981e+03
-1.013075813670000002e+03
-1.012052832709999961e+03
-1.010401472610000042e+03
-1.012366616399999998e+03
-1.013725023999999962e+03
-1.009860216179999952e+03
-1.011223589139999945e+03
-1.008387362339999981e+03
-1.013409290879999958e+03
-1.009336758239999995e+03
-1.009517637150000041e+03
-1.010755371540000056e+03
-1.011567378060000010e+03
-1.009401385989999994e+03
-1.005529061339999998e+03
-1.010012935119999952e+03
-1.008388440469999978e+03
-1.012734946690000015e+03
-1.010914911579999966e+03
-1.008035588609999991e+03
-1.011789940200000046e+03
-1.013853619600000002e+03
-1.007895984689999977e+03
-1.011961868910000021e+03
-1.008687882299999956e+03
-1.008710526810000033e+03
-1.005019633979999981e+03
-1.009004700670000034e+03
-1.011686493410000026e+03
-1.013074296229999959e+03
-1.009254410320000034e+03
-1.012920943439999974e+03
-1.010183689950000030e+03
-1.012966095930000051e+03
-1.008012174360000017e+03
-1.011346982049999951e+03
-1.007398016090000056e+03
-1.015618537810000021e+03
-1.011687705830000027e+03
-1.011370677890000024e+03
-1.009926376030000029e+03
-1.012051225680000016e+03
-1.008509377470000004e+03
-1.010924658539999996e+03
-1.009395840550000003e+03
-1.010592495959999951e+03
-1.010197720460000028e+03
-1.014782803830000034e+03
-1.012490949470000032e+03
-1.012978753539999957e+03
-1.007240179629999943e+03
-1.010314686120000033e+03
-1.009000574560000018e+03
-1.011173910099999944e+03
-1.012494011549999982e+03
-1.009705652279999981e+03
-1.009473052779999989e+03
-1.014205396329999985e+03
-1.013635695120000037e+03
-1.009802723809999975e+03
-1.013050868240000000e+03
-1.012884835859999953e+03
-1.008792923660000042e+03
-1.012706856290000019e+03
-1.012414260160000026e+03
-1.014320908850000023e+03
-1.012012565150000000e+03
-1.012236296590000052e+03
-1.013477878959999998e+03
-1.012770289789999993e+03
-1.013266266139999971e+03
-1.012205184319999944e+03
-1.011864720229999989e+03
-1.011033911519999947e+03
-1.011335384460000000e+03
-1.011495206140000050e+03
-1.010272311830000035e+03
-1.009762186710000037e+03
-1.013177356049999958e+03
-1.006052660100000026e+03
-1.005038357010000027e+03
-1.012614501000000018e+03
-1.013042849049999973e+03
-1.010759244800000033e+03
-1.009839813329999970e+03
-1.007859645030000024e+03
-1.013684677970000052e+03
-1.011774670209999954e+03
-1.010252673340000001e+03
-1.001952055869999981e+03
-1.012434424970000009e+03
-1.005422766669999987e+03
-1.011999911620000034e+03
-1.011958130439999991e+03
-1.010651219340000011e+03
-1.011950756360000014e+03
-1.014338210789999948e+03
-1.012572214540000004e+03
-1.010447721959999967e+03
-1.009408314270000005e+03
-1.009625151889999984e+03
-1.008812388899999974e+03
-1.006894915549999951e+03
-1.007927050359999953e+03
-1.011064315640000018e+03
-1.013475624339999968e+03
-1.013211812910000049e+03
-1.013978212050000025e+03
-1.010894997050000029e+03
-1.009285645660000000e+03
-1.009242820830000028e+03
-1.009577170369999976e+03
-1.009241403379999952e+03
-1.010889944910000054e+03
-1.013133802800000012e+03
-1.010496021659999997e+03
-1.011205034920000003e+03
-1.007811232349999955e+03
-1.014358897909999996e+03
-1.007042051519999973e+03
-1.011099464880000028e+03
-1.012563172989999998e+03
-1.014103742659999966e+03
-1.010796701070000040e+03
-1.008929705549999994e+03
-1.010469707289999974e+03
-1.007202840000000037e+03
-1.010650832789999981e+03
-1.013220901300000037e+03
-1.007970764260000010e+03
-1.013303542849999985e+03
-1.011326865030000022e+03
-1.014252940289999970e+03
-1.008113133510000011e+03
-1.015378396629999997e+03
-1.011059115420000012e+03
-1.009553102879999983e+03
-1.009354203630000029e+03
-1.011422032719999947e+03
-1.013734037570000055e+03
-1.010312876370000026e+03
-1.009406632970000032e+03
-1.010306835900000010e+03
-1.014055775560000029e+03
-1.011868723489999979e+03
-1.009534450279999987e+03
-1.006827186389999952e+03
-1.013651651639999955e+03
-1.010943105489999994e+03
-1.010091374060000021e+03
-1.012200512580000009e+03
-1.008833733629999983e+03
-1.008615721150000013e+03
-1.011681488280000053e+03
-1.007865186679999965e+03
-1.006214869189999945e+03
-1.010594485419999955e+03
-1.010715813369999978e+03
-1.011746720380000056e+03
-1.009353402729999971e+03
-1.009753507779999950e+03
-1.010129757260000019e+03
-1.010977879099999996e+03
-1.009802638109999975e+03
-1.012869872149999992e+03
-1.011711576509999986e+03
-1.006283678730000020e+03
-1.010635686729999975e+03
-1.008981935789999966e+03
-1.012786310510000021e+03
-1.011938521499999979e+03
-1.014113953310000056e+03
-1.009737143670000023e+03
-1.012177703009999959e+03
-1.007648703019999971e+03
-1.010457441199999948e+03
-1.008561956590000023e+03
-1.013802643419999981e+03
-1.009573994319999997e+03
-1.014450235700000007e+03
-1.009379857769999944e+03
-1.009685519350000050e+03
-1.010646141919999991e+03
-1.012183983730000023e+03
-1.011350609970000050e+03
-1.008677917529999945e+03
-1.015175764449999974e+03
-1.006199796020000008e+03
-1.012039665969999987e+03
-1.008224982149999960e+03
-1.011560290740000028e+03
-1.007093722459999981e+03
-1.012111792459999947e+03
-1.013037880889999997e+03
-1.009191319479999947e+03
-1.014346103810000045e+03
-1.014119912450000015e+03
-1.012049096469999995e+03
-1.010240027080000004e+03
-1.011101723050000032e+03
-1.013846842990000027e+03
-1.013790478630000052e+03
-1.010645821049999995e+03
-1.008353991850000057e+03
-1.012378503720000026e+03
-1.010199105710000026e+03
-1.010942070909999984e+03
-1.007569858110000041e+03
-1.013662176309999950e+03
-1.015133443329999977e+03
-1.015721731180000006e+03
-1.009170264480000014e+03
-1.010643991519999986e+03
-1.012036207030000014e+03
-1.008356220809999968e+03
-1.009056481879999978e+03
-1.009648584880000044e+03
-1.011618872649999958e+03
-1.012231587170000012e+03
-1.008630643139999961e+03
-1.010240724129999990e+03
-1.012293293039999980e+03
-1.012764918009999974e+03
-1.012396919819999994e+03
-1.013812940499999968e+03
-1.012679403900000011e+03
-1.010420237670000006e+03
-1.009351912429999970e+03
-1.009424423670000010e+03
-1.007503630219999991e+03
-1.010762600779999957e+03
-1.009401043709999954e+03
-1.011629070970000043e+03
-1.014382761009999967e+03
-1.011808189650000031e+03
-1.011147113590000004e+03
-1.007511028570000008e+03
-1.009065796729999988e+03
-1.008330091020000054e+03
-1.012425332720000029e+03
-1.006501980570000001e+03
-1.013694064379999986e+03
-1.008462304099999983e+03
-1.008323501689999944e+03
-1.011219815880000056e+03
-1.011676318489999971e+03
-1.013716151910000008e+03
-1.013869074599999976e+03
-1.010805830600000036e+03
-1.015447723170000017e+03
-1.014218616290000000e+03
-1.007248822570000016e+03
-1.009916396540000051e+03
-1.010220791060000010e+03
-1.012552764840000009e+03
-1.014877956830000016e+03
-1.012365405170000031e+03
-1.012739351090000014e+03
-1.011774562319999973e+03
-1.011010974740000051e+03
-1.012489758390000020e+03
-1.011751057909999986e+03
-1.007626478720000023e+03
-1.014911548899999957e+03
-1.009822758239999985e+03
-1.009313996879999991e+03
-1.012804571590000023e+03
-1.009066309280000041e+03
-1.012363682820000008e+03
-1.009225113510000028e+03
-1.010648789350000015e+03
-1.009485611380000023e+03
-1.010675037579999980e+03
-1.006111306499999955e+03
-1.013950076689999946e+03
-1.011637650180000037e+03
-1.015725852890000056e+03
-1.009402699679999955e+03
-1.004743272270000034e+03
-1.012284823800000026e+03
-1.012876803139999993e+03
-1.006977133650000042e+03
-1.009044279390000042e+03
-1.011639691620000008e+03
-1.010470025930000020e+03
-1.012350144409999984e+03
-1.011227203669999994e+03
-1.012922385729999974e+03
-1.009182524080000007e+03
-1.014502727619999973e+03
-1.012365530840000019e+03
-1.009282742070000040e+03
-1.011892336249999971e+03
-1.008681062910000037e+03
-1.007732021329999952e+03
-1.011701437540000029e+03
-1.012150266849999980e+03
-1.011030539950000048e+03
-1.009487115620000054e+03
-1.008708009930000003e+03
-1.013445282460000044e+03
-1.009466581229999974e+03
-1.007657813710000028e+03
-1.014196697640000025e+03
-1.010596218870000030e+03
-1.010378779079999958e+03
-1.008708709040000031e+03
-1.014697381429999950e+03
-1.009701794100000029e+03
-1.012884553699999969e+03
-1.009295012670000006e+03
-1.011990271269999994e+03
-1.011233019620000050e+03
-1.011326000379999982e+03
-1.008670381229999975e+03
-1.007414562479999972e+03
-1.008941347990000054e+03
-1.010257245099999977e+03
-1.011043968680000035e+03
-1.009325328040000045e+03
-1.009960982400000034e+03
-1.008178630539999972e+03
-1.013835733639999944e+03
-1.010065320240000005e+03
-1.013739935319999972e+03
-1.009868449159999955e+03
-1.010841605599999980e+03
-1.013474773320000054e+03
-1.011135957599999983e+03
-1.011556896120000033e+03
-1.012302085209999973e+03
-1.008507879089999960e+03
-1.011646156170000040e+03
-1.008318538610000019e+03
-1.011335333910000031e+03
-1.010232906380000031e+03
-1.008607553000000053e+03
-1.009203181100000052e+03
-1.013220208550000052e+03
-1.011359902519999991e+03
-1.014694543179999982e+03
-1.012363161989999981e+03
-1.011415119060000052e+03
-1.008679096759999993e+03
-1.005771445640000024e+03
-1.010682213010000055e+03
-1.010932811399999991e+03
-1.010780293929999971e+03
-1.015187580140000023e+03
-1.012098983569999973e+03
-1.009323571119999997e+03
-1.009730252709999945e+03
-1.013209326619999956e+03
-1.015121161469999947e+03
-1.010436151350000046e+03
-1.010560531299999980e+03
-1.012814600690000020e+03
