-9.780875464388751050e-03 -1.617955203157087421e-03 -2.798517929790527922e-03 -1.617955203157087421e-03 -9.420584350097139723e-03 -3.416202638924438657e-03 -2.798517929790527922e-03 -3.416202638924438657e-03 -6.151625152961413476e-03
-1.270661407469215673e-02 7.347229916588231789e-03 -6.779452314424883747e-03 7.347229916588231789e-03 -2.524733507832746873e-02 1.011967082125082244e-03 -6.779452314424883747e-03 1.011967082125082244e-03 -2.062897409119402933e-02
-1.837526500998359902e-02 1.073926543217725146e-03 4.648363921501556567e-04 1.073926543217725146e-03 -1.394523531921456477e-02 3.877337816162946052e-03 4.648363921501556567e-04 3.877337816162946052e-03 9.747676877348178523e-04
-1.108734815461863421e-02 1.628971466764271439e-03 -1.362670614248423853e-02 1.628971466764271439e-03 -3.272036261134787273e-03 -4.595248678840290206e-04 -1.362670614248423853e-02 -4.595248678840290206e-04 9.127308319290136640e-03
-1.495525505049237133e-02 -1.220886620492121939e-02 2.897452090944903531e-03 -1.220886620492121939e-02 -6.694405511075599002e-03 -2.808785212302605892e-03 2.897452090944903531e-03 -2.808785212302605892e-03 -1.326321313401104991e-02
-1.988667765236185742e-02 1.022284296710167109e-03 -8.626389762883250752e-05 1.022284296710167109e-03 -2.328408710730826489e-02 7.841632337467697306e-03 -8.626389762883250752e-05 7.841632337467697306e-03 3.875958442646125577e-03
-2.065783482939211480e-03 1.010495958424111398e-02 1.447781705141705857e-02 1.010495958424111398e-02 -3.368858919751877012e-02 -7.252602396730715474e-03 1.447781705141705857e-02 -7.252602396730715474e-03 -3.266567450838688685e-02
-2.011591579953729905e-02 1.673279940048916919e-03 4.590286679085212387e-03 1.673279940048916919e-03 -2.822580819923545953e-02 -1.443124291031971582e-03 4.590286679085212387e-03 -1.443124291031971582e-03 -1.636868848261251522e-02
-1.427165376348000711e-02 4.457024217738479559e-03 -5.970814875093701998e-03 4.457024217738479559e-03 -1.229718980056159275e-02 -4.113603902614131405e-03 -5.970814875093701998e-03 -4.113603902614131405e-03 -1.560763630885706951e-02
-1.169188824553343657e-02 8.290047319107655271e-03 7.516686889355963727e-03 8.290047319107655271e-03 -1.568672247099113428e-03 -1.131131846809183168e-02 7.516686889355963727e-03 -1.131131846809183168e-02 -1.989300654261550588e-02
-1.182860850293590733e-02 -7.715466471997092270e-03 1.087034336532992536e-02 -7.715466471997092270e-03 -7.869463226660010358e-03 4.564303276594161227e-03 1.087034336532992536e-02 4.564303276594161227e-03 -1.733332620103602770e-02
-8.197841504790980699e-03 3.443066094202240461e-03 7.028282558746472113e-03 3.443066094202240461e-03 -2.328662116001337448e-02 -2.110365958474482925e-02 7.028282558746472113e-03 -2.110365958474482925e-02 -4.273839045648368529e-02
-8.470002510225119879e-03 -4.850014598340592932e-03 6.910499040031928795e-03 -4.850014598340592932e-03 4.837980968745889468e-03 -8.968886334656969370e-03 6.910499040031928795e-03 -8.968886334656969370e-03 -2.273835451537753460e-02
-1.733864396681127767e-02 3.708823311273223757e-03 -3.213877879099807239e-03 3.708823311273223757e-03 -1.853146501736795473e-02 -9.231691317911409856e-04 -3.213877879099807239e-03 -9.231691317911409856e-04 5.366274784178901372e-03
-1.466848891370366344e-02 6.673952085670079894e-03 8.628518117495176734e-03 6.673952085670079894e-03 3.209983177405256738e-03 2.891141925218635497e-03 8.628518117495176734e-03 2.891141925218635497e-03 2.675010947207550477e-03
-1.948556706838697195e-02 2.184103771438580290e-03 -7.664691795258032556e-03 2.184103771438580290e-03 -8.409434905667547821e-04 -7.309843276924192675e-03 -7.664691795258032556e-03 -7.309843276924192675e-03 -3.339806567223627728e-03
7.973634013971001716e-03 -6.008376277013267527e-03 -7.249843649697076259e-03 -6.008376277013267527e-03 -8.360819791086045866e-03 -4.602457621880684871e-03 -7.249843649697076259e-03 -4.602457621880684871e-03 -6.562566113809566518e-03
-1.929849655686600041e-03 2.705382130614098629e-03 1.221419645371472473e-03 2.705382130614098629e-03 -1.258047941676718184e-02 -4.676719097460444417e-03 1.221419645371472473e-03 -4.676719097460444417e-03 -9.630873275566399425e-03
5.971389093933282717e-03 -1.945540809629070543e-03 3.117615083851310240e-03 -1.945540809629070543e-03 -1.918302239652803359e-02 -4.906712467240116095e-03 3.117615083851310240e-03 -4.906712467240116095e-03 1.395576474510993150e-03
-8.334636660302964517e-03 8.134721123000924689e-03 1.192889707157060051e-03 8.134721123000924689e-03 -1.505799029070441220e-02 1.376601662617395194e-02 1.192889707157060051e-03 1.376601662617395194e-02 -1.577924036076410255e-02
-1.417290684759940807e-02 -1.260042103842438184e-03 -2.046915400851666376e-03 -1.260042103842438184e-03 -1.294781719486191689e-02 -5.267521626789175519e-04 -2.046915400851666376e-03 -5.267521626789175519e-04 -9.243781121088244859e-03
7.325915162923342036e-03 3.003495330993660121e-03 4.253301359869649835e-03 3.003495330993660121e-03 -1.284035713224158416e-02 2.343268495657729183e-03 4.253301359869649835e-03 2.343268495657729183e-03 -7.855482246218032510e-03
-3.536510223929489188e-02 1.773999172813294986e-03 1.538953301396220157e-02 1.773999172813294986e-03 -2.560046718165168503e-02 5.142966070673049561e-03 1.538953301396220157e-02 5.142966070673049561e-03 -2.126057736567866369e-02
-1.948718986075970161e-02 4.716084295517390559e-04 -3.764441399093969558e-03 4.716084295517390559e-04 -7.295962160628228187e-03 1.426428254120233954e-03 -3.764441399093969558e-03 1.426428254120233954e-03 -6.748288459359348158e-03
-1.454201097277676817e-02 -1.122701440432852596e-02 -1.104169775687192587e-02 -1.122701440432852596e-02 -1.296315882429333738e-02 -2.433576891200134318e-03 -1.104169775687192587e-02 -2.433576891200134318e-03 -9.624394589093733521e-03
3.829065984583364911e-03 2.073235844835515877e-03 -3.069967403184317364e-03 2.073235844835515877e-03 2.062200856700954245e-03 -1.219715713380106493e-04 -3.069967403184317364e-03 -1.219715713380106493e-04 -9.162897404325924880e-03
-9.045369787485541338e-03 -3.577757861138801095e-04 6.171604223673365875e-05 -3.577757861138801095e-04 -1.097107508111255618e-02 -4.014651016932377532e-03 6.171604223673365875e-05 -4.014651016932377532e-03 -1.427721494811116931e-02
-3.103642841522107759e-02 9.989104691846469389e-03 -3.962771593078035816e-03 9.989104691846469389e-03 -9.797509086209231846e-03 -3.442504358380911629e-03 -3.962771593078035816e-03 -3.442504358380911629e-03 -1.969557512594556289e-02
-7.075961446959094271e-03 -8.155155823879065100e-04 -4.173210314766316424e-03 -8.155155823879065100e-04 9.991857197370983962e-03 -1.028282386980140795e-03 -4.173210314766316424e-03 -1.028282386980140795e-03 -1.262743428992120498e-02
-1.416063604065792222e-02 7.635337977839004066e-03 -5.112875755177166692e-03 7.635337977839004066e-03 -2.388131839103665652e-02 -7.993219869608023803e-03 -5.112875755177166692e-03 -7.993219869608023803e-03 -2.582337019706435789e-03
-1.849815408316311457e-02 -8.158276578442005345e-05 5.296045323494462430e-04 -8.158276578442005345e-05 -1.997824683274769184e-02 8.820500696698219947e-04 5.296045323494462430e-04 8.820500696698219947e-04 -1.169704997358054013e-02
-2.076410900527852696e-02 4.676756546515199210e-03 5.653808626590089894e-04 4.676756546515199210e-03 -1.670873214129976400e-02 -1.176430223441193336e-02 5.653808626590089894e-04 -1.176430223441193336e-02 -2.679481116043508013e-02
1.479818123183039222e-03 3.705328066162729295e-03 9.113289889793405735e-03 3.705328066162729295e-03 -2.486740193481670053e-02 -7.792031064444302803e-03 9.113289889793405735e-03 -7.792031064444302803e-03 -1.570218893060507104e-02
-1.919699089395175695e-02 2.862905337933139595e-03 4.636517537180630429e-03 2.862905337933139595e-03 1.471454500954355767e-03 -2.108881103453435438e-04 4.636517537180630429e-03 -2.108881103453435438e-04 -7.291093783510039193e-03
-1.680465789505546093e-02 -8.543989359403340519e-03 -4.458909153494496243e-03 -8.543989359403340519e-03 7.466224288073197712e-03 8.437359417496750891e-03 -4.458909153494496243e-03 8.437359417496750891e-03 -8.001271416380413559e-03
-2.115558894067217852e-02 -3.844900693235730593e-03 1.986865841551543714e-03 -3.844900693235730593e-03 -2.454427276586059956e-02 2.742968498570167498e-03 1.986865841551543714e-03 2.742968498570167498e-03 -3.121428645927224344e-03
-8.992179646714764524e-03 -9.807033629135328626e-04 1.737674838002479724e-02 -9.807033629135328626e-04 6.181016419435196758e-03 6.603460481602354583e-03 1.737674838002479724e-02 6.603460481602354583e-03 -6.076521073649659814e-03
-7.534375326218716376e-03 -1.429573974719679274e-03 6.961735588446304850e-03 -1.429573974719679274e-03 6.609695749219111731e-03 4.842393715697890233e-03 6.961735588446304850e-03 4.842393715697890233e-03 -1.716636583191865142e-02
-1.708674289999975726e-02 9.156630929163536714e-03 -1.070980550910308280e-04 9.156630929163536714e-03 -2.542176653386852420e-02 -5.078747183276837059e-03 -1.070980550910308280e-04 -5.078747183276837059e-03 -1.404630407648999393e-02
-1.198542017821460116e-02 1.822633011922177590e-03 -7.699088752050775586e-03 1.822633011922177590e-03 -9.070959974901662837e-03 1.029071937884565129e-02 -7.699088752050775586e-03 1.029071937884565129e-02 -1.132181044493243971e-02
-6.728053486773234899e-03 1.903468044913316642e-02 2.752468075459761371e-03 1.903468044913316642e-02 -1.137083749911625176e-02 3.495875502916338199e-03 2.752468075459761371e-03 3.495875502916338199e-03 -2.488195713409825996e-02
-1.448092532296174628e-02 8.113587373100684475e-04 8.719344558295030398e-03 8.113587373100684475e-04 -2.948487662765426204e-02 3.146750448450932446e-03 8.719344558295030398e-03 3.146750448450932446e-03 -1.272881512265292524e-02
3.153466312270383331e-03 -6.758299839997265919e-03 -6.599272428978886912e-04 -6.758299839997265919e-03 -1.657133780091169309e-02 8.007968555672487915e-03 -6.599272428978886912e-04 8.007968555672487915e-03 5.564598736653840819e-03
-6.923843386543068225e-03 7.752828145624630213e-03 -6.620499801516015193e-03 7.752828145624630213e-03 1.128401810717521644e-02 3.838777772783239124e-03 -6.620499801516015193e-03 3.838777772783239124e-03 -8.709994777624458298e-03
-1.686768465420863256e-02 -5.216372459502562238e-03 -2.079327557742378062e-03 -5.216372459502562238e-03 -2.408296282636656488e-02 5.026992589605013342e-03 -2.079327557742378062e-03 5.026992589605013342e-03 -1.297586653687363492e-02
-2.643309698206276759e-02 5.532910594821731191e-03 -1.645374152747092764e-03 5.532910594821731191e-03 -2.312895439798443378e-02 5.233237017160699035e-03 -1.645374152747092764e-03 5.233237017160699035e-03 -1.579113043564890975e-02
2.765256927658696611e-03 1.675221049387066498e-04 9.495694670918019761e-03 1.675221049387066498e-04 -8.702548657237279411e-03 -3.258860435370047881e-03 9.495694670918019761e-03 -3.258860435370047881e-03 8.534152741020949173e-03
-2.263533216574570642e-03 -3.930315745623443394e-03 -1.578805961315897510e-02 -3.930315745623443394e-03 4.011268118986149184e-03 9.023293569707293432e-03 -1.578805961315897510e-02 9.023293569707293432e-03 -1.046903305306301143e-02
-2.025408408705697827e-02 1.063162436579226898e-02 6.069923798503601420e-03 1.063162436579226898e-02 2.019034579586345777e-03 -7.914377126329866924e-03 6.069923798503601420e-03 -7.914377126329866924e-03 -2.380922896063270705e-02
-1.477272835761504234e-02 -2.692430999177890596e-03 -1.189837609194503232e-03 -2.692430999177890596e-03 -4.681206742521953901e-03 6.801622154840021670e-04 -1.189837609194503232e-03 6.801622154840021670e-04 -9.567484508883929151e-03
1.149966848898360773e-03 1.147582592412273389e-03 5.138203799210000304e-03 1.147582592412273389e-03 -2.813833969034533478e-02 -5.620547624458258583e-03 5.138203799210000304e-03 -5.620547624458258583e-03 -5.144189406461722753e-04
-1.462382467439884461e-02 -2.825487490723469896e-03 -7.182441592646662994e-03 -2.825487490723469896e-03 -1.531276245171384054e-02 1.335220457112789270e-02 -7.182441592646662994e-03 1.335220457112789270e-02 -2.578021640296800088e-02
-8.118018844580059817e-04 1.942420055066128564e-03 6.260670558899719337e-03 1.942420055066128564e-03 -1.762602801300344746e-02 1.774124002995812553e-03 6.260670558899719337e-03 1.774124002995812553e-03 3.087986640030741976e-04
-9.715339618566977073e-03 4.024287907022741292e-03 1.172507434955575786e-02 4.024287907022741292e-03 -1.260918411723712176e-02 -1.883200616479748565e-03 1.172507434955575786e-02 -1.883200616479748565e-03 -4.141241305023541839e-04
-2.996509833979971865e-02 6.677459813798825375e-03 3.866265378973629627e-03 6.677459813798825375e-03 -1.678808044681711492e-02 7.352060844651665990e-04 3.866265378973629627e-03 7.352060844651665990e-04 -7.769586597627627274e-03
-3.433395499962597214e-02 -2.801495129643574288e-03 -8.212365496526910849e-03 -2.801495129643574288e-03 -1.036669102792590197e-02 -2.308359735116664434e-04 -8.212365496526910849e-03 -2.308359735116664434e-04 -1.450237738982740679e-02
-1.204209308107761882e-02 7.797061720799765457e-03 1.301244178035131267e-02 7.797061720799765457e-03 -2.229578158627940759e-02 -1.487408422431025883e-02 1.301244178035131267e-02 -1.487408422431025883e-02 -1.020536674154919748e-02
-1.397438316683244190e-02 -1.324760311968721494e-04 -5.030032204549316974e-03 -1.324760311968721494e-04 -3.303379247512235745e-02 7.514858127182079232e-03 -5.030032204549316974e-03 7.514858127182079232e-03 -2.540727999118734537e-02
-1.838473962083668782e-03 -7.300181420797324273e-03 -7.109259898145681676e-03 -7.300181420797324273e-03 -1.297329503511377227e-02 -1.654624069271651721e-03 -7.109259898145681676e-03 -1.654624069271651721e-03 -2.645921769775458690e-02
-6.309603990446644405e-03 -4.911518429267046522e-03 1.635643640019840504e-03 -4.911518429267046522e-03 -9.212717130168725232e-03 1.650426030233582628e-02 1.635643640019840504e-03 1.650426030233582628e-02 -1.282591428012428911e-02
1.642652854768207474e-03 -2.879632582390506939e-03 -3.062227931868221741e-03 -2.879632582390506939e-03 8.239984174408944428e-03 1.231670075808910352e-02 -3.062227931868221741e-03 1.231670075808910352e-02 -1.062992043380090249e-02
-1.992588681269066159e-02 1.859021010126076607e-03 1.585410102121994833e-02 1.859021010126076607e-03 -1.515931494985399940e-02 7.320622363184591495e-03 1.585410102121994833e-02 7.320622363184591495e-03 -2.925360999001290832e-02
-1.368623765652691310e-02 2.471675062904525773e-03 5.697723884799805495e-03 2.471675062904525773e-03 -6.935639838790987576e-03 -2.523872803724287132e-03 5.697723884799805495e-03 -2.523872803724287132e-03 -1.560312369775905365e-02
-1.314365078519562878e-02 9.994653393459380138e-04 -2.276465623483400844e-03 9.994653393459380138e-04 -5.348985803900203895e-03 -6.846554779037256067e-03 -2.276465623483400844e-03 -6.846554779037256067e-03 -1.444664695484239661e-02
-1.744401936538356526e-02 -3.770632976146845970e-03 -3.195883608289886400e-03 -3.770632976146845970e-03 -1.366330011048929281e-02 -1.639207541730719909e-04 -3.195883608289886400e-03 -1.639207541730719909e-04 -1.633323046926837482e-02
-1.672242601232195106e-02 5.356962452563083198e-03 -1.071754498041917712e-02 5.356962452563083198e-03 -1.830452998705996495e-02 3.187476295497321450e-04 -1.071754498041917712e-02 3.187476295497321450e-04 -7.043206007066459169e-03
-1.096538282478975133e-02 -5.424389475649999369e-03 2.081000282188114840e-03 -5.424389475649999369e-03 -2.698113269086094626e-02 -6.361658176556510367e-04 2.081000282188114840e-03 -6.361658176556510367e-04 -1.268647896625205856e-02
-1.877949634852142669e-02 -5.691444926619166310e-04 -4.722019970696104268e-03 -5.691444926619166310e-04 -1.994081650251976895e-02 -4.176917771187090359e-03 -4.722019970696104268e-03 -4.176917771187090359e-03 -1.893603963890770625e-02
-1.504472084230278105e-03 -3.688950346216411744e-03 -5.516289456019504885e-03 -3.688950346216411744e-03 -1.850192395467514794e-02 -3.775988190976853776e-03 -5.516289456019504885e-03 -3.775988190976853776e-03 -7.250492766646167431e-03
-4.933927319481704737e-02 4.526823014293231660e-03 5.008424099955510050e-03 4.526823014293231660e-03 -2.901785570731004599e-02 1.384364227517256504e-02 5.008424099955510050e-03 1.384364227517256504e-02 -2.729263392831553225e-02
-2.716850903632908598e-02 1.057894602876981345e-02 4.996047187358883604e-03 1.057894602876981345e-02 -2.100596124239737655e-02 1.304418609576555449e-02 4.996047187358883604e-03 1.304418609576555449e-02 -1.054888067931043436e-02
-2.418488667039224091e-02 -6.290798323450357867e-03 -6.075578605771651472e-03 -6.290798323450357867e-03 -1.250433924694053373e-02 1.021633931459250098e-02 -6.075578605771651472e-03 1.021633931459250098e-02 -2.092502135205292352e-02
-2.542518688086950820e-02 -3.357713456905787094e-03 2.899299577646165423e-03 -3.357713456905787094e-03 -1.406392385675236077e-02 5.756543866802129022e-04 2.899299577646165423e-03 5.756543866802129022e-04 -2.364885338364313208e-02
1.084499659676971435e-02 4.832931587863050285e-03 6.064874417620762237e-03 4.832931587863050285e-03 7.760798552778383139e-03 3.586882947480842486e-03 6.064874417620762237e-03 3.586882947480842486e-03 -1.369040698462300337e-02
-1.235431209208167833e-02 -4.977616010910150199e-03 2.349884495331165408e-03 -4.977616010910150199e-03 -2.304675372279655493e-02 -7.807372693875724162e-03 2.349884495331165408e-03 -7.807372693875724162e-03 -7.742741866877201999e-03
-2.247599892078015749e-02 -9.734494810074312970e-03 5.862075303102563459e-03 -9.734494810074312970e-03 -2.201970091311420893e-02 -1.195442484389546388e-03 5.862075303102563459e-03 -1.195442484389546388e-03 -2.828258720775361779e-02
-1.833521324592280594e-02 -9.021352460369144559e-04 -1.196615888105212249e-03 -9.021352460369144559e-04 -1.236899212154575489e-02 3.622340960824985481e-03 -1.196615888105212249e-03 3.622340960824985481e-03 -6.685149353041913017e-03
-5.016862620293704826e-03 -1.173067922475080037e-02 -2.075988350360030721e-04 -1.173067922475080037e-02 -2.659798517015034627e-02 -7.509939817990882692e-03 -2.075988350360030721e-04 -7.509939817990882692e-03 7.638983019168519217e-04
-6.959987965891057185e-03 1.326089753412534704e-02 1.056132000699831893e-03 1.326089753412534704e-02 -3.400520847245657591e-02 3.139466607301027220e-03 1.056132000699831893e-03 3.139466607301027220e-03 -1.558324449119311700e-02
-1.139125347546701868e-02 -2.985463611128983622e-03 -6.606294126745505119e-03 -2.985463611128983622e-03 -2.528207531812213041e-02 3.686291463328785455e-03 -6.606294126745505119e-03 3.686291463328785455e-03 -2.066279682914718904e-02
-3.058982347122762846e-03 4.222998833063486626e-03 8.539170914358159073e-03 4.222998833063486626e-03 -1.487547608084533075e-02 1.205618640868386451e-02 8.539170914358159073e-03 1.205618640868386451e-02 -1.589100082317216819e-02
1.307300938490888430e-02 1.860462798734155432e-03 -1.131960095070187668e-04 1.860462798734155432e-03 -1.543558910980209579e-02 -4.205547573547517223e-03 -1.131960095070187668e-04 -4.205547573547517223e-03 -8.654077097365670684e-03
-9.798620074833638491e-03 -5.615673005830944513e-04 4.044554087154484702e-03 -5.615673005830944513e-04 -8.373696024412742578e-03 -5.516813742786078924e-03 4.044554087154484702e-03 -5.516813742786078924e-03 -1.862274708833399489e-02
-1.677779443977766086e-02 -7.581473754082632306e-03 4.654880057028978890e-03 -7.581473754082632306e-03 9.474298777634492311e-04 9.962572036552339114e-04 4.654880057028978890e-03 9.962572036552339114e-04 2.310756474621003705e-03
-1.569908065906038333e-02 -6.678477179786345037e-04 -6.866995721424523288e-03 -6.678477179786345037e-04 -8.189590229726562490e-03 7.206945757474879886e-03 -6.866995721424523288e-03 7.206945757474879886e-03 -8.184865407318268893e-03
-4.821303656361529237e-03 9.194242263156109573e-04 2.848031821686159652e-03 9.194242263156109573e-04 -2.894473018639119946e-02 5.168038212831722530e-03 2.848031821686159652e-03 5.168038212831722530e-03 -1.138807654732194169e-02
-2.113234556068739264e-02 -4.282043509394342813e-03 -7.248401861088996784e-03 -4.282043509394342813e-03 -8.541567653862497259e-04 -4.658687377595767919e-03 -7.248401861088996784e-03 -4.658687377595767919e-03 -2.473785941290899265e-02
-1.297503017465076805e-02 -1.528358339655033543e-04 -5.703016684538554301e-03 -1.528358339655033543e-04 -1.611717438936679722e-02 -5.212796074773431813e-03 -5.703016684538554301e-03 -5.212796074773431813e-03 -1.020847501309388693e-02
-1.516505713824981135e-03 9.186858557860191205e-03 -4.921211492939542471e-03 9.186858557860191205e-03 -9.493148135194659151e-04 7.001032129902865289e-03 -4.921211492939542471e-03 7.001032129902865289e-03 -1.524725781343769411e-03
-2.268133208800346672e-03 -3.309323036652813896e-03 -3.814710513593833497e-03 -3.309323036652813896e-03 -5.496060724942516268e-03 -5.024165185970987449e-03 -3.814710513593833497e-03 -5.024165185970987449e-03 -7.959340958072729302e-03
-8.052102266701607197e-03 -1.844865267428573484e-04 3.107934503197065310e-03 -1.844865267428573484e-04 -5.139502033108184383e-03 7.306123337485165986e-03 3.107934503197065310e-03 7.306123337485165986e-03 -1.573860813635460237e-02
1.524051698358174086e-04 -1.299432892086800108e-02 1.861661168486325284e-03 -1.299432892086800108e-02 -7.465019676811900616e-03 1.381152346921076792e-03 1.861661168486325284e-03 1.381152346921076792e-03 -6.060305632940615923e-03
1.170894628997447458e-03 1.481303602354999650e-03 7.568709867920199973e-03 1.481303602354999650e-03 -6.694611480876752965e-03 1.078464120352242176e-03 7.568709867920199973e-03 1.078464120352242176e-03 -6.156668292335127149e-03
2.058986479501124633e-03 -5.901140908721466162e-03 2.178149371732487558e-03 -5.901140908721466162e-03 -5.930138960120319783e-03 -4.293359365439568427e-03 2.178149371732487558e-03 -4.293359365439568427e-03 -3.852172051367384366e-03
1.897811989343441271e-03 -6.723646981330362246e-03 1.124932155794443247e-03 -6.723646981330362246e-03 -9.062596352672980249e-03 2.888183449892966961e-03 1.124932155794443247e-03 2.888183449892966961e-03 -1.812580437324029514e-02
-1.705295136959222510e-02 -9.947155509011408603e-04 8.206897934532638231e-03 -9.947155509011408603e-04 -9.557897550866572070e-03 6.344475301932953927e-03 8.206897934532638231e-03 6.344475301932953927e-03 -2.042150008634054797e-02
-8.278737704571553432e-03 1.259873583096039014e-03 2.249152779548535888e-03 1.259873583096039014e-03 -1.974208685195164709e-02 5.248709718283763905e-03 2.249152779548535888e-03 5.248709718283763905e-03 -1.020306362468174737e-02
-1.500355184810845711e-02 -5.166015963874936827e-03 -3.793402001438067953e-03 -5.166015963874936827e-03 -7.867060245646545144e-03 -1.485706987043310286e-02 -3.793402001438067953e-03 -1.485706987043310286e-02 -4.089861201899270063e-03
-1.305078961242073753e-02 1.232373493887397491e-03 1.581972903046370603e-03 1.232373493887397491e-03 -8.468286095215502365e-03 3.149721406794853303e-03 1.581972903046370603e-03 3.149721406794853303e-03 -4.741649516897007526e-03
-1.116376919235594935e-02 -3.307625346170574212e-03 -1.598762562594996731e-03 -3.307625346170574212e-03 -2.380216981381132885e-02 6.266032015238853954e-03 -1.598762562594996731e-03 6.266032015238853954e-03 -4.353003226646509106e-03
-1.902954368712256317e-02 -4.934206314939632541e-03 -6.357189256022378714e-03 -4.934206314939632541e-03 2.457781463590309398e-03 -1.277527691658600015e-02 -6.357189256022378714e-03 -1.277527691658600015e-02 -1.014743305384274881e-02
-1.012387135689254113e-02 -7.775172748295293250e-03 -6.166604774863532722e-03 -7.775172748295293250e-03 -3.678127569392130453e-03 1.655148356038225977e-03 -6.166604774863532722e-03 1.655148356038225977e-03 -2.224874557350674936e-02
-4.088941827605027668e-02 2.294853109368252646e-03 9.541944253540815199e-03 2.294853109368252646e-03 -2.210675748240203270e-02 9.723210161574715772e-04 9.541944253540815199e-03 9.723210161574715772e-04 -2.774306491740314434e-02
-3.036353131635960434e-02 -6.241016046662313174e-03 -1.388785712582032116e-02 -6.241016046662313174e-03 -3.213606997603744159e-02 3.429990132583515296e-03 -1.388785712582032116e-02 3.429990132583515296e-03 -2.603975083544047761e-02
-1.209573885201458560e-02 1.029143715239512740e-03 -2.593852604043690290e-03 1.029143715239512740e-03 -1.172275250816092775e-02 5.777914794049153133e-03 -2.593852604043690290e-03 5.777914794049153133e-03 2.302268022209802249e-03
-1.710102971438890243e-02 2.924920972607915771e-03 4.495010042278604900e-03 2.924920972607915771e-03 2.065315369754770010e-04 -1.938756289209235366e-03 4.495010042278604900e-03 -1.938756289209235366e-03 -6.281623305035310446e-03
-5.417673611830549352e-03 5.382552639979204913e-04 4.682567391511397413e-03 5.382552639979204913e-04 -1.382230879698029269e-02 5.150243670313829278e-04 4.682567391511397413e-03 5.150243670313829278e-04 -8.637986486839142192e-03
-8.304889627809004631e-04 7.372376956856415212e-03 -4.053435754640615819e-03 7.372376956856415212e-03 -5.177999661396632744e-03 -7.545847219992090141e-03 -4.053435754640615819e-03 -7.545847219992090141e-03 -1.103743480613894774e-02
-9.551025649318974770e-03 -4.610658964872095533e-03 1.212669049576983998e-03 -4.610658964872095533e-03 -1.217126735394690080e-02 -8.161834238643760758e-03 1.212669049576983998e-03 -8.161834238643760758e-03 -2.475794458927608674e-02
-1.550031355943750494e-02 -3.056348430271639896e-03 -6.478449295320038229e-03 -3.056348430271639896e-03 -1.197945329549025394e-03 2.499112737021908295e-03 -6.478449295320038229e-03 2.499112737021908295e-03 -9.379140729501274712e-03
-1.269122251318773043e-02 3.367930807344857950e-03 6.558446717786484657e-03 3.367930807344857950e-03 -9.171922626521951394e-03 -6.247176416169560736e-03 6.558446717786484657e-03 -6.247176416169560736e-03 -8.450067130077050168e-03
-1.762574090358365667e-02 1.078586453931109669e-02 -8.052114749719858217e-03 1.078586453931109669e-02 -2.174339554562048499e-02 -4.476516450738612929e-03 -8.052114749719858217e-03 -4.476516450738612929e-03 -1.065348837226023915e-02
-1.172670338343761304e-02 -6.698287729751899351e-03 2.547846440276804476e-03 -6.698287729751899351e-03 -2.170335626457794639e-02 -3.212754407457148707e-03 2.547846440276804476e-03 -3.212754407457148707e-03 -3.059472929740057051e-02
7.176661955196094941e-03 3.745342381168766826e-04 3.315864138216739559e-04 3.745342381168766826e-04 -2.340534714660592441e-03 5.918635858801316735e-03 3.315864138216739559e-04 5.918635858801316735e-03 4.237934764401725569e-03
2.209537921126554505e-03 -2.651661461567620965e-03 -5.999494609527134675e-03 -2.651661461567620965e-03 4.788903982489069872e-03 -1.161576055872503774e-03 -5.999494609527134675e-03 -1.161576055872503774e-03 -2.671665498316076488e-03
-5.520271538841818593e-03 -7.371915085181100606e-03 -5.687450360778601582e-04 -7.371915085181100606e-03 -2.519754031852116868e-02 4.739433781157318878e-03 -5.687450360778601582e-04 4.739433781157318878e-03 -1.962904688017277390e-03
-2.774684103042430669e-02 8.452931982765829119e-03 4.196497385314986936e-03 8.452931982765829119e-03 -2.618191993030984446e-02 -3.805654083852176833e-03 4.196497385314986936e-03 -3.805654083852176833e-03 -9.936863260462827294e-03
-1.304930413324877775e-02 4.746230784595405726e-03 9.457203284138697777e-03 4.746230784595405726e-03 -1.318053186262047559e-02 7.290388492978814097e-03 9.457203284138697777e-03 7.290388492978814097e-03 -3.283433256798650585e-03
-6.101942740319382143e-03 -4.240743443508372332e-03 -2.241669210106601341e-03 -4.240743443508372332e-03 -1.326617160933671845e-02 -1.018188618421762490e-02 -2.241669210106601341e-03 -1.018188618421762490e-02 -1.861515741323692408e-02
1.468897978816393994e-02 -2.095524273924045098e-04 -3.166298855033198873e-03 -2.095524273924045098e-04 -1.063489491657423035e-02 3.081732647886606998e-03 -3.166298855033198873e-03 3.081732647886606998e-03 4.730421041979543384e-03
-1.011017748587035234e-02 -3.591894879308926876e-03 5.758478734631153036e-04 -3.591894879308926876e-03 -1.305448458582326131e-02 5.638030091519858136e-03 5.758478734631153036e-04 5.638030091519858136e-03 -1.166308992242661054e-02
4.291287184409775827e-04 -9.058820239651821371e-03 5.973729659855489364e-03 -9.058820239651821371e-03 1.159372803151067013e-02 3.806521653620674722e-03 5.973729659855489364e-03 3.806521653620674722e-03 1.255473319162291393e-02
4.768912428758866236e-03 -3.297177059893845186e-03 -1.209961482918175957e-02 -3.297177059893845186e-03 -2.386004108642652167e-04 6.216362085615073640e-03 -1.209961482918175957e-02 6.216362085615073640e-03 -7.265509837603043204e-03
8.812892297073767617e-03 -4.010668934110064691e-04 3.591582803852632743e-03 -4.010668934110064691e-04 -1.584191759540622135e-02 -1.678990920899100028e-03 3.591582803852632743e-03 -1.678990920899100028e-03 -1.136422149944281770e-02
3.805260868777246412e-04 -4.995703904356959754e-03 8.975789443750197688e-03 -4.995703904356959754e-03 -5.671696791744872297e-03 -1.358920091414680736e-03 8.975789443750197688e-03 -1.358920091414680736e-03 7.589924757439077017e-04
-1.627638904565895453e-02 9.070778971137014382e-03 1.221740458940542839e-02 9.070778971137014382e-03 3.343638853826920313e-04 -1.035377734554445046e-02 1.221740458940542839e-02 -1.035377734554445046e-02 -1.413995167941474451e-02
-2.410176849336285315e-02 7.574002667658948779e-03 -9.688120397269002135e-03 7.574002667658948779e-03 -1.155204099205889637e-02 1.898180238381868244e-03 -9.688120397269002135e-03 1.898180238381868244e-03 -2.557271119056888503e-02
-1.834412612095456807e-02 -2.803873144620536162e-04 -1.977784445773383276e-03 -2.803873144620536162e-04 -1.918488236624754997e-02 -8.610224254247213216e-03 -1.977784445773383276e-03 -8.610224254247213216e-03 4.254462280567063918e-04
-2.278993434679383451e-02 -1.161856923783168705e-04 -1.604211400061892603e-03 -1.161856923783168705e-04 -1.036579225061177480e-02 -8.969822561025851335e-03 -1.604211400061892603e-03 -8.969822561025851335e-03 -2.027767699155281350e-02
2.195194933155274978e-03 7.985723817147839104e-03 -5.766985911569731671e-03 7.985723817147839104e-03 -5.410589498972671711e-03 -6.360129006820668986e-03 -5.766985911569731671e-03 -6.360129006820668986e-03 -3.102508135163022096e-02