-1.019358948179999970e+03
-1.020367833779999955e+03
-1.018415335730000038e+03
-1.014873688470000047e+03
-1.014989675690000013e+03
-1.014529376859999957e+03
-1.014323129369999947e+03
-1.014638461160000020e+03
-1.019275985839999976e+03
-1.015758488800000009e+03
-1.013218587009999965e+03
-1.013954066600000033e+03
-1.015878823939999961e+03
-1.011175876399999993e+03
-1.015526445589999980e+03
-1.019094772519999992e+03
-1.022010877759999971e+03
-1.015801296090000051e+03
-1.010391200410000010e+03
-1.016685418880000043e+03
-1.012646654209999951e+03
-1.019038921299999970e+03
-1.013004006129999993e+03
-1.013442398000000026e+03
-1.017895690660000014e+03
-1.019323238139999944e+03
-1.012297658479999996e+03
-1.016549334739999949e+03
-1.019206657479999990e+03
-1.013402127650000011e+03
-1.019569213559999980e+03
-1.018059202799999980e+03
-1.017945484549999946e+03
-1.018344336470000030e+03
-1.015954652829999986e+03
-1.016391360070000019e+03
-1.015579951530000017e+03
-1.016529940610000040e+03
-1.016192140350000045e+03
-1.018677078850000044e+03
-1.015070631970000022e+03
-1.016875383510000006e+03
-1.015151962099999992e+03
-1.020532842970000047e+03
-1.018233076090000054e+03
-1.018309860139999955e+03
-1.016155070880000039e+03
-1.018271886289999998e+03
-1.015036254589999999e+03
-1.018285137250000048e+03
-1.015918673389999981e+03
-1.020354365939999980e+03
-1.014120365539999966e+03
-1.015811833930000034e+03
-1.016291297119999967e+03
-1.014152971689999958e+03
-1.019368780399999991e+03
-1.016146364250000033e+03
-1.018238306830000056e+03
-1.015280619669999965e+03
-1.017755510660000027e+03
-1.016462380950000011e+03
-1.015001045019999992e+03
-1.015877098130000036e+03
-1.013850803739999947e+03
-1.017309370759999979e+03
-1.015017624650000016e+03
-1.014840404059999969e+03
-1.011228643789999978e+03
-1.016701100969999970e+03
-1.017671088850000046e+03
-1.017477846210000052e+03
-1.015323277709999957e+03
-1.011138980250000031e+03
-1.021178253000000041e+03
-1.012444312549999950e+03
-1.014523607879999986e+03
-1.016340019340000026e+03
-1.016703206180000052e+03
-1.013737717559999965e+03
-1.018337109690000034e+03
-1.018092290130000038e+03
-1.016994802879999952e+03
-1.018707447320000028e+03
-1.020297075820000032e+03
-1.012156979920000026e+03
-1.015611765979999973e+03
-1.016790808119999951e+03
-1.019659512530000029e+03
-1.017829694789999962e+03
-1.016007791770000040e+03
-1.019124634349999951e+03
-1.017426061320000031e+03
-1.016484078009999962e+03
-1.018725545130000000e+03
-1.012594039210000005e+03
-1.011342686490000006e+03
-1.014457045569999991e+03
-1.015447390270000028e+03
-1.016341566380000017e+03
-1.017209514320000039e+03
-1.015559415429999945e+03
-1.011130289520000019e+03
-1.016065657819999956e+03
-1.014567498689999979e+03
-1.016671177140000054e+03
-1.015855498789999956e+03
-1.018721256870000047e+03
-1.017230214729999943e+03
-1.018496547110000051e+03
-1.013796987500000000e+03
-1.017422295360000021e+03
-1.013096526160000053e+03
-1.012819881440000017e+03
-1.015290107590000048e+03
-1.015207933720000028e+03
-1.018589362520000009e+03
-1.018746760679999966e+03
-1.016109568879999983e+03
-1.015310366400000021e+03
-1.016657118380000043e+03
-1.013710308299999951e+03
-1.018549015579999946e+03
-1.017860650250000049e+03
-1.010856582580000008e+03
-1.018024205520000010e+03
-1.019006592490000003e+03
-1.015173612889999958e+03
-1.015331677679999984e+03
-1.016956115009999962e+03
-1.018354980780000005e+03
-1.015718338470000049e+03
-1.019146512389999998e+03
-1.016711683569999991e+03
-1.015407608510000045e+03
-1.012731654560000038e+03
-1.015733109979999995e+03
-1.018284233210000025e+03
-1.013887334939999960e+03
-1.018557938560000025e+03
-1.017788270109999985e+03
-1.018296733310000036e+03
-1.014508422139999993e+03
-1.015474031910000008e+03
-1.019477125470000033e+03
-1.016066282180000030e+03
-1.018753750419999960e+03
-1.015515108660000010e+03
-1.014422597269999983e+03
-1.017082602859999952e+03
-1.008682939830000009e+03
-1.018371806999999990e+03
-1.015287311339999974e+03
-1.017226882469999964e+03
-1.015550538309999979e+03
-1.018487754849999988e+03
-1.017790944749999994e+03
-1.018391847510000048e+03
-1.019249536239999998e+03
-1.017028577219999988e+03
-1.016969374420000008e+03
-1.017499212739999962e+03
-1.016982791379999981e+03
-1.015602063150000049e+03
-1.017189975379999964e+03
-1.014739659169999982e+03
-1.012616269490000036e+03
-1.014208452849999958e+03
-1.016884516719999965e+03
-1.016554769599999986e+03
-1.016170387529999971e+03
-1.017666821970000001e+03
-1.016617122249999966e+03
-1.012032410329999948e+03
-1.015751814979999949e+03
-1.015052990730000033e+03
-1.014490857099999971e+03
-1.012821985899999959e+03
-1.012697863669999947e+03
-1.013446592310000028e+03
-1.019027908779999962e+03
-1.018138298260000056e+03
-1.015677639399999975e+03
-1.016714499469999964e+03
-1.017962591210000028e+03
-1.021549643530000026e+03
-1.013846795010000051e+03
-1.015546699549999971e+03
-1.019051886330000002e+03
-1.019681763980000028e+03
-1.020993620790000023e+03
-1.014363597509999977e+03
-1.011104956760000050e+03
-1.017381045549999953e+03
-1.014456750879999959e+03
-1.017880847840000001e+03
-1.013042620130000046e+03
-1.010151105600000051e+03
-1.017807855130000007e+03
-1.015141542569999956e+03
-1.017500782319999985e+03
-1.014660309050000023e+03
-1.019954807439999968e+03
-1.015833775510000009e+03
-1.016500205779999987e+03
-1.015876295649999975e+03
-1.017870239060000017e+03
-1.018838634230000025e+03
-1.017753528400000050e+03
-1.017379447170000049e+03
-1.017582817100000057e+03
-1.016759199910000007e+03
-1.017457312210000055e+03
-1.017259921640000016e+03
-1.017284567400000014e+03
-1.017460979849999944e+03
-1.014925576670000055e+03
-1.016263008799999966e+03
-1.015246185190000006e+03
-1.014352777520000018e+03
-1.019634845349999978e+03
-1.012556733559999998e+03
-1.017088010980000035e+03
-1.012380712270000004e+03
-1.012601172219999967e+03
-1.014032819880000034e+03
-1.018601216470000054e+03
-1.015135170079999966e+03
-1.016270271019999996e+03
-1.017064034740000011e+03
-1.015785863790000008e+03
-1.012819212099999959e+03
-1.017200282659999971e+03
-1.019803435400000012e+03
-1.015019089539999982e+03
-1.014071931869999958e+03
-1.016641659450000020e+03
-1.017237771469999984e+03
-1.014833891040000026e+03
-1.015422250360000021e+03
-1.016750762249999980e+03
-1.017308373250000045e+03
-1.019325941019999959e+03
-1.017502424410000003e+03
-1.014197421370000029e+03
-1.016817639379999946e+03
-1.014854109429999994e+03
-1.016800423099999989e+03
-1.014880054719999976e+03
-1.017445253129999969e+03
-1.011626701120000007e+03
-1.013581752280000046e+03
-1.016774668689999999e+03
-1.013906694410000000e+03
-1.012636648219999984e+03
-1.020187749179999969e+03
-1.017780745560000014e+03
-1.016025626460000012e+03
-1.015747504749999962e+03
-1.016110954220000053e+03
-1.016359356309999953e+03
-1.012330180720000044e+03
-1.010891468809999992e+03
-1.014672976879999965e+03
-1.014171562809999955e+03
-1.014651426099999981e+03
-1.010020383120000020e+03
-1.015509141559999989e+03
-1.014834622009999975e+03
-1.016614502219999963e+03
-1.010127885519999950e+03
-1.012260630040000024e+03
-1.015121014609999975e+03
-1.018762898759999985e+03
-1.014994590629999948e+03
-1.016082149510000022e+03
-1.018057371399999965e+03
-1.014505360549999978e+03
-1.013168248049999988e+03
-1.017167965099999947e+03
-1.016678020660000016e+03
-1.014705639949999977e+03
-1.017617413400000032e+03
-1.015823889010000016e+03
-1.014220005590000028e+03
-1.014437819419999983e+03
-1.015176630469999964e+03
-1.015764548760000025e+03
-1.012952116840000031e+03
-1.016604038130000049e+03
-1.016257555669999988e+03
-1.016765413380000041e+03
-1.014942253520000008e+03
-1.015499189430000001e+03
-1.016515617310000039e+03
-1.020905508629999986e+03
-1.016794715490000044e+03
-1.016265166069999964e+03
-1.013699898350000012e+03
-1.018333911919999991e+03
-1.015009158739999975e+03
-1.018858534780000014e+03
-1.016224351650000017e+03
-1.014773339459999988e+03
-1.015145315230000051e+03
-1.015677230020000025e+03
-1.013626038190000031e+03
-1.013893065920000026e+03
-1.013910214959999962e+03
-1.015730786950000038e+03
-1.016442168069999980e+03
-1.016327221389999977e+03
-1.017223071310000023e+03
-1.016626609359999975e+03
-1.011999973039999986e+03
-1.018538703629999986e+03
-1.014160170310000012e+03
-1.017513423460000013e+03
-1.018177502290000007e+03
-1.017755696429999944e+03
-1.017353177859999960e+03
-1.016118545929999982e+03
-1.016307209499999999e+03
-1.017152686290000020e+03
-1.017206560810000042e+03
-1.016821095819999982e+03
-1.018856532870000024e+03
-1.017720049539999991e+03
-1.012957656319999955e+03
-1.017329626500000018e+03
-1.019476609400000029e+03
-1.013590469979999966e+03
-1.018142385399999966e+03
-1.015430085019999979e+03
-1.015237592439999958e+03
-1.016179949869999973e+03
-1.015010175760000038e+03
-1.017174577979999981e+03
-1.016467207320000057e+03
-1.017079448329999991e+03
-1.015044313760000023e+03
-1.019485607409999943e+03
-1.015944759210000029e+03
-1.011982583569999974e+03
-1.017347246430000041e+03
-1.011479561139999987e+03
-1.017194269970000050e+03
-1.013963021750000053e+03
-1.016062853270000005e+03
-1.015236796690000006e+03
-1.017350785989999963e+03
-1.018917673209999975e+03
-1.017009742260000053e+03
-1.017239018839999972e+03
-1.012389302879999946e+03
-1.010492834700000003e+03
-1.012461379419999957e+03
-1.017825668729999961e+03
-1.019424126679999972e+03
-1.016048684839999964e+03
-1.016873142619999953e+03
-1.013932417109999960e+03
-1.014814003859999957e+03
-1.016583288909999965e+03
-1.015665895019999994e+03
-1.015446026709999956e+03
-1.012913907679999966e+03
-1.014327957190000006e+03
-1.017679898650000041e+03
-1.016948615140000015e+03
-1.013453138009999975e+03
-1.017153787029999989e+03
-1.016269955399999958e+03
-1.017379011070000047e+03
-1.014892786939999951e+03
-1.016044283400000040e+03
-1.013672098020000021e+03
-1.018885743179999963e+03
-1.014523469340000020e+03
-1.015927320089999967e+03
-1.016634968289999961e+03
-1.016619637320000038e+03
-1.014739641219999953e+03
-1.018184519170000044e+03
-1.017712168030000043e+03
-1.015511651219999976e+03
-1.018708625849999976e+03
-1.013317051650000053e+03
-1.016835060030000022e+03
-1.015047484159999954e+03
-1.013716305440000042e+03
-1.017905206079999971e+03
-1.015453915459999962e+03
-1.017371510479999984e+03
-1.015835867679999978e+03
-1.014135085799999956e+03
-1.018213253470000041e+03
-1.016309955090000017e+03
-1.019450899889999960e+03
-1.018377049950000014e+03
-1.018591270320000035e+03
-1.017446234929999946e+03
-1.016341505379999944e+03
-1.017780385369999976e+03
-1.015616120239999987e+03
-1.016283224000000018e+03
-1.015496580340000037e+03
-1.014026948879999964e+03
-1.016702767360000053e+03
-1.013826862780000056e+03
-1.016572892430000024e+03
-1.016082110009999951e+03
-1.015874402260000011e+03
-1.016264018200000010e+03
-1.017687274959999968e+03
-1.016490763769999944e+03
-1.016016653900000051e+03
-1.015351800899999944e+03
-1.016773800159999951e+03
-1.013891160050000053e+03
-1.014081521999999950e+03
-1.013398202650000030e+03
-1.018199929330000032e+03
-1.015143264520000002e+03
-1.018088940819999948e+03
-1.017184339239999986e+03
-1.016451395370000000e+03
-1.013838591840000049e+03
-1.011478484610000010e+03
-1.013134259459999953e+03
-1.013185680120000029e+03
-1.016304738629999974e+03
-1.015262025989999984e+03
-1.017696401850000029e+03
-1.015712713040000040e+03
-1.018677497420000009e+03
-1.014510021990000041e+03
-1.018220699289999970e+03
-1.016220079980000037e+03
-1.011123474480000027e+03
-1.016577062139999953e+03
-1.015583511860000044e+03
-1.014413315160000025e+03
-1.013700961880000023e+03
-1.015317558289999965e+03
-1.015369405460000053e+03
-1.017764554249999946e+03
-1.014609131599999955e+03
-1.012766825870000048e+03
-1.016619736259999968e+03
-1.017521144439999944e+03
-1.016852193380000017e+03
-1.015460321919999956e+03
-1.017312314549999996e+03
-1.014464374420000013e+03
-1.015370547569999985e+03
-1.018109033780000004e+03
-1.014289853849999986e+03
-1.015348359830000049e+03
-1.015294172789999948e+03
-1.017518768389999991e+03
-1.016586887349999984e+03
-1.010779324390000056e+03
-1.017576683649999950e+03
-1.016937805809999986e+03
-1.018225173850000033e+03
-1.014181760670000017e+03
-1.015450529409999945e+03
-1.019006973880000032e+03
-1.018615880609999977e+03
-1.012866138650000039e+03
-1.017420087609999996e+03
-1.014586090059999947e+03
-1.012971588930000053e+03
-1.016717866759999993e+03
-1.016965362819999996e+03
-1.017353997309999954e+03
-1.016633416659999966e+03
-1.015675276889999964e+03
-1.012662453659999983e+03
-1.012595600959999956e+03
-1.016886928969999985e+03
-1.015211224769999944e+03
-1.010976793010000051e+03
-1.014764629580000019e+03
-1.018925458850000041e+03
-1.016150888340000051e+03
-1.012931823610000038e+03
-1.015614861529999985e+03
-1.017573261519999960e+03
-1.015925451690000045e+03
-1.019484717649999993e+03
-1.019055888610000011e+03
-1.018235463259999960e+03
-1.013851631539999971e+03
-1.017343247779999956e+03
-1.012830131850000043e+03
-1.015447163309999951e+03
-1.016880567459999952e+03
-1.016656536120000055e+03
-1.018450382770000033e+03
-1.015817998600000010e+03
-1.014882293389999973e+03
-1.015693688120000047e+03
-1.014873895429999948e+03
-1.014225617199999988e+03
-1.016712888769999950e+03
-1.017486203580000051e+03
-1.014625190019999991e+03
-1.016302571469999975e+03
-1.016394970019999960e+03
-1.018762748750000014e+03
-1.016989909659999967e+03
-1.014918712460000052e+03
-1.018038117329999977e+03
-1.015423316529999965e+03
-1.014858967239999970e+03
-1.015935430939999947e+03
-1.019315293450000013e+03
-1.016459527689999959e+03
-1.017191849899999966e+03
-1.016454050339999981e+03
-1.014548482079999985e+03
-1.015989192539999976e+03
-1.018528580469999952e+03
-1.015741965769999979e+03
-1.013808053299999983e+03
-1.016571753100000024e+03
-1.014732235769999988e+03
-1.014175299180000025e+03
-1.019446577199999979e+03
-1.018881423020000057e+03
-1.015373803879999969e+03
-1.014550736720000032e+03
-1.013861175079999953e+03
-1.017532005209999966e+03
-1.015832458879999990e+03
-1.017279190589999985e+03
-1.016754925960000037e+03
-1.022662099610000041e+03
-1.018299450750000005e+03
-1.013126831779999975e+03
-1.016373336600000016e+03
-1.013570316759999969e+03
-1.015359846909999987e+03
-1.017155806839999968e+03
-1.016103323069999988e+03
-1.017125447280000003e+03
-1.014082565459999955e+03
-1.014345304469999974e+03
-1.015703960820000020e+03
-1.019080425559999981e+03
-1.015870628740000029e+03
-1.012449143540000023e+03
-1.016746268170000008e+03
-1.017148990649999973e+03
-1.014887169409999956e+03
-1.015178343160000054e+03
-1.017414377530000024e+03
-1.017171365690000016e+03
-1.015717910390000043e+03
-1.015043232940000053e+03
-1.016920085380000046e+03
-1.019693912800000021e+03
-1.014186392630000000e+03
-1.013930018120000000e+03
-1.019338681400000041e+03
-1.016605284539999957e+03
-1.016218804549999959e+03
-1.017059934190000035e+03
-1.015490020490000006e+03
-1.013372720179999988e+03
-1.016162678899999946e+03
-1.020111531379999974e+03
-1.013519168110000010e+03
-1.012443438259999994e+03
-1.015556402140000046e+03
-1.016252154049999945e+03
-1.016624405349999961e+03
-1.012682046590000027e+03
-1.015212729289999970e+03
-1.018554015110000023e+03
-1.022630946829999971e+03
-1.017086931000000050e+03
-1.013600988369999982e+03
-1.016746271750000005e+03
-1.018234803280000051e+03
-1.014781057550000014e+03
-1.017965765909999959e+03
-1.016269640009999989e+03
-1.016260436590000040e+03
-1.013639081990000022e+03
-1.014540634680000039e+03
-1.018937707189999969e+03
-1.017761674269999958e+03
-1.016147063210000056e+03
-1.014154231790000040e+03
-1.014955457730000035e+03
-1.021014883830000031e+03
-1.015257320530000015e+03
-1.018324925630000052e+03
-1.017779811170000016e+03
-1.015758010430000013e+03
-1.018130898509999952e+03
-1.014761432030000037e+03
-1.016979709380000031e+03
-1.014718240619999960e+03
-1.015506611639999960e+03
-1.019290534389999948e+03
-1.013532221380000010e+03
-1.015442714509999973e+03
-1.017619075419999945e+03
-1.013448738619999972e+03
-1.015780274759999998e+03
-1.018549325560000057e+03
-1.016386238329999969e+03
-1.011997380089999979e+03
-1.015939067919999957e+03
-1.014315324160000046e+03
-1.016592099999999959e+03
-1.014632357989999946e+03
-1.014036369880000052e+03
-1.017302522009999961e+03
-1.015397322150000036e+03
-1.014112719019999986e+03
-1.015199663750000013e+03
-1.013269368819999954e+03
-1.015827532379999980e+03
-1.017934393669999963e+03
-1.016490906139999993e+03
-1.018009482090000006e+03
-1.016426365759999953e+03
-1.015659357959999966e+03
-1.016640823090000026e+03
-1.017871418059999996e+03
-1.013392632270000036e+03
-1.014008751609999990e+03
-1.016673874759999990e+03
-1.015287171439999952e+03
-1.009858293860000003e+03
-1.015391651959999990e+03
-1.014218276530000026e+03
-1.016783168550000028e+03
-1.014171991219999995e+03
-1.017740414539999961e+03
-1.016735890519999998e+03
-1.019524998009999990e+03
-1.019606570199999965e+03
-1.016703727260000051e+03
-1.011965679710000018e+03
-1.013694392249999964e+03
-1.017407280270000001e+03
-1.016136856810000040e+03
-1.016237534269999969e+03
-1.013783422689999952e+03
-1.018488511280000012e+03
-1.019467302600000039e+03
-1.016250375070000018e+03
-1.015869983649999995e+03
-1.013704744359999950e+03
-1.019315312449999965e+03
-1.015445973239999944e+03
-1.019188007640000023e+03
-1.015152526119999948e+03
-1.014326470009999980e+03
-1.016535423440000045e+03
-1.016361591810000050e+03
-1.015223401510000031e+03
-1.016890751489999957e+03
-1.019842460409999944e+03
-1.017359490599999958e+03
-1.010786524360000044e+03
-1.019384005020000018e+03
-1.010827653029999965e+03
-1.014820832819999964e+03
-1.014048971140000049e+03
-1.019136312750000002e+03
-1.016684444159999998e+03
-1.013629316219999964e+03
-1.017531423829999994e+03
-1.016216062859999965e+03
-1.020105263010000044e+03
-1.017904612609999958e+03
-1.014076364059999946e+03
-1.014963368810000020e+03
-1.015766895180000006e+03
-1.015921791020000001e+03
-1.016917661560000056e+03
-1.014286034709999967e+03
-1.013993936609999992e+03
-1.016688693220000005e+03
-1.011815135789999999e+03
-1.015154791230000001e+03
-1.013887897510000016e+03
-1.015636347910000040e+03
-1.016603618979999965e+03
-1.017021371759999965e+03
-1.016390269900000021e+03
-1.015881688019999956e+03
-1.016968445960000054e+03
-1.018409353450000026e+03
-1.014361049569999977e+03
-1.012818555329999981e+03
-1.012397393739999984e+03
-1.011999572029999968e+03
-1.016295646479999959e+03
-1.018930123790000039e+03
-1.014734412700000007e+03
-1.019178763880000020e+03
-1.017133707650000019e+03
-1.017284463230000028e+03
-1.016118288900000039e+03
-1.015991831710000042e+03
-1.014644422220000024e+03
-1.015789414330000000e+03
-1.013170433529999968e+03
-1.018510591149999982e+03
-1.016882467590000033e+03
-1.017190850709999950e+03
-1.013499947659999975e+03
-1.016018123360000004e+03
-1.013103961349999963e+03
-1.016774549600000000e+03
-1.013783896030000051e+03
-1.015246339690000013e+03
-1.015126900819999946e+03
-1.014516403240000045e+03
-1.017124589519999972e+03
-1.018932432469999981e+03
-1.015196919549999961e+03
-1.017947964950000028e+03
-1.019622879140000009e+03
-1.017584628390000034e+03
-1.015478982500000029e+03
-1.019502870789999974e+03
-1.016681665110000040e+03
-1.019698487730000011e+03
-1.016932647979999956e+03
-1.017463084320000007e+03
-1.014899901460000024e+03
-1.016789816370000040e+03
-1.016047759499999984e+03
-1.015186524060000011e+03
-1.016656000449999965e+03
-1.020287501890000044e+03
-1.016956752940000001e+03
-1.016059081569999989e+03
-1.013032000349999976e+03
-1.017031211950000056e+03
-1.018834839910000028e+03
-1.015496405019999997e+03
-1.014703970909999953e+03
-1.011959806139999955e+03
-1.016209159310000018e+03
-1.015397328160000029e+03
-1.018352848129999984e+03
-1.019147766599999954e+03
-1.013965720489999967e+03
-1.015564902770000003e+03
-1.015595297930000015e+03
-1.016331768310000029e+03
-1.018501430440000036e+03
-1.014973834630000056e+03
-1.009280388320000043e+03
-1.017099718820000021e+03
-1.014284269650000056e+03
-1.015741433150000034e+03
-1.019566324890000033e+03
-1.015542665719999945e+03
-1.017024647189999996e+03
-1.013285155570000029e+03
-1.013086602940000034e+03
-1.014632126370000037e+03
-1.019003257250000047e+03
-1.018476698189999979e+03
-1.016725506650000057e+03
-1.016627880979999986e+03
-1.014520537590000004e+03
-1.016131391200000053e+03
-1.012909976710000024e+03
-1.013583468789999984e+03
-1.016472198390000017e+03
-1.017900643479999985e+03
-1.017781605560000003e+03
-1.015027403270000036e+03
-1.013418029000000047e+03
-1.016824112069999956e+03
-1.015446721750000052e+03
-1.017749404420000019e+03
-1.015089172189999999e+03
-1.017569911570000045e+03
-1.016365645380000046e+03
-1.018894277439999996e+03
-1.013733542719999946e+03
-1.019326743039999997e+03
-1.015728358599999979e+03
-1.015727413500000011e+03
-1.011046758459999978e+03
-1.014791443390000040e+03
-1.013467513080000003e+03
-1.016057320040000036e+03
-1.017410100639999996e+03
-1.016193712979999987e+03
-1.020219637000000034e+03
-1.019180660379999949e+03
-1.017894006229999945e+03
-1.013075457779999965e+03
-1.014335699760000011e+03
-1.017539196719999950e+03
-1.017489198699999974e+03
-1.017030228279999960e+03
-1.014489037650000000e+03
-1.018188062759999980e+03
-1.014399264369999969e+03
-1.014775331879999953e+03
-1.016167781429999991e+03
-1.018443974270000012e+03
-1.013795589759999984e+03
-1.012234253050000007e+03
-1.013269958029999998e+03
-1.010886655049999945e+03
-1.015591555940000035e+03
-1.018408429400000045e+03
-1.016996699400000011e+03
-1.019493374239999980e+03
-1.017609785109999962e+03
-1.017230906450000020e+03
-1.011980270020000034e+03
-1.010246149459999970e+03
-1.018257313220000015e+03
-1.016412280860000010e+03
-1.015453578679999964e+03
-1.020185857140000053e+03
-1.016246485160000020e+03
-1.016661506609999947e+03
-1.012045653580000021e+03
-1.013716048369999953e+03
-1.017237522799999965e+03
-1.016877899970000044e+03
-1.018767861000000039e+03
-1.016918772370000056e+03
-1.016742278940000006e+03
-1.011984551529999976e+03
-1.016872662730000002e+03
-1.016211262099999999e+03
-1.015792210070000010e+03
-1.018045715100000052e+03
-1.012406584670000029e+03
-1.014045472310000036e+03
-1.012240052679999962e+03
-1.014350615319999974e+03
-1.018531368659999998e+03
-1.018432046470000046e+03
-1.012710029060000011e+03
-1.012727358259999960e+03
-1.015166252900000018e+03
-1.016120697380000024e+03
-1.016428383680000024e+03
-1.014486258519999978e+03
-1.017492485989999977e+03
-1.016199677149999957e+03
-1.018591944460000036e+03
-1.014648355319999951e+03
-1.016687281880000000e+03
-1.015197931309999944e+03
-1.016455428249999954e+03
-1.018401650649999965e+03
-1.019348222370000030e+03
-1.016527482620000001e+03
-1.016790220139999974e+03
-1.014168062680000048e+03
-1.016049465349999991e+03
-1.014977149540000028e+03
-1.018836615110000025e+03
-1.014553024459999961e+03
-1.018270287560000043e+03
-1.016914125059999947e+03
-1.010923121110000011e+03
-1.015646701760000042e+03
-1.015941570999999954e+03
-1.018941215639999996e+03
-1.015946583199999964e+03
-1.017377495550000049e+03
-1.014751103889999968e+03
-1.014797947669999985e+03
-1.015926649030000021e+03
-1.017111380199999985e+03
-1.017869129830000020e+03
-1.015400271360000033e+03
-1.014554318689999945e+03
-1.017028844970000023e+03
-1.016329162640000050e+03
-1.016565941230000021e+03
-1.016988545540000018e+03
-1.015479321479999953e+03
-1.011884621089999996e+03
-1.015170468260000007e+03
-1.019970242859999985e+03
-1.014648319839999999e+03
-1.012281970099999967e+03
-1.014059386130000007e+03
-1.015661429229999953e+03
-1.014919971529999998e+03
-1.013063848580000013e+03
-1.016704572660000053e+03
-1.014162594030000037e+03
-1.016341768450000018e+03
-1.018775263989999985e+03
-1.014692337660000021e+03
-1.018667126179999968e+03
-1.019071818490000055e+03
-1.014997504459999959e+03
-1.014359553060000053e+03
-1.017834611939999945e+03
-1.016609214849999944e+03
-1.014374946840000007e+03
-1.016911738949999972e+03
-1.017157438970000044e+03
-1.017880385520000004e+03
-1.017086449489999950e+03
-1.020067596399999957e+03
-1.013158131639999965e+03
-1.016890995490000023e+03
-1.013340564739999991e+03
-1.014649483229999987e+03
-1.014448597859999950e+03
-1.014300576529999944e+03
-1.012036943830000041e+03
-1.016695942940000009e+03
-1.019693546780000020e+03
-1.016087450750000016e+03
-1.017471332999999959e+03
-1.013532280610000043e+03
-1.012856386960000009e+03
-1.016253668100000027e+03
-1.015684158320000051e+03
-1.012775493370000049e+03
-1.017256842079999956e+03
-1.016736664430000019e+03
-1.018199423789999969e+03
-1.017397683949999987e+03
-1.013817504589999999e+03
-1.017647291369999948e+03
-1.013167800670000020e+03
-1.019981018769999991e+03
-1.017332785550000040e+03
-1.014216024729999958e+03
-1.015813543589999995e+03
-1.020451106279999976e+03
-1.015642740430000003e+03
-1.020190288910000049e+03
-1.018578549210000006e+03
-1.017199467550000008e+03
-1.014934232449999968e+03
-1.016558833029999960e+03
-1.017797372809999956e+03
-1.015248945430000049e+03
-1.016770427899999959e+03
-1.016100116719999960e+03
-1.016387229430000048e+03
-1.017757811820000029e+03
-1.013777719840000032e+03
-1.017949237499999981e+03
-1.017356134829999974e+03
-1.016793084349999958e+03
-1.018620691299999976e+03
-1.016761366690000045e+03
-1.016474098519999984e+03
-1.014103887170000007e+03
-1.016908476680000035e+03
-1.017477162020000037e+03
-1.015825240559999997e+03
-1.015203943200000026e+03
-1.022100953659999959e+03
-1.014763690949999955e+03
-1.017671136830000023e+03
-1.012254332330000011e+03
-1.016727399220000052e+03
-1.017055040350000013e+03
-1.017203345000000013e+03
-1.010563198820000025e+03
-1.019833077389999971e+03
-1.016305785590000028e+03
-1.016796500430000037e+03
-1.018869085530000007e+03
-1.014240585129999999e+03
-1.013792759739999951e+03
-1.014598734020000052e+03
-1.018270675630000028e+03
-1.019072795970000016e+03
-1.018025472489999970e+03
-1.020404810659999953e+03
-1.015508934250000038e+03
-1.019456510750000007e+03
-1.012626592090000031e+03
-1.019073775739999974e+03
-1.016304954060000000e+03
-1.011721209619999968e+03
-1.021138092680000000e+03
-1.013390314880000005e+03
-1.017734399980000035e+03
-1.015021400250000056e+03
-1.012003093359999980e+03
-1.015224599779999949e+03
-1.013923721669999964e+03
-1.016454669439999975e+03
-1.015269792260000031e+03
-1.016074891340000022e+03
-1.020576908929999945e+03
-1.018699668119999956e+03
-1.015605649520000043e+03
-1.012764978049999968e+03
-1.017464875959999972e+03
-1.017602822930000002e+03
-1.014161471290000009e+03
-1.015035378229999992e+03
-1.017890876879999951e+03
-1.015462033069999961e+03
-1.015042110579999985e+03
-1.018757813220000003e+03
-1.017809553049999977e+03
-1.015132390600000008e+03
-1.016240554699999961e+03
-1.013197656189999975e+03
-1.013813715720000005e+03
-1.018065528670000049e+03
-1.019732431779999956e+03
-1.016670866299999943e+03
-1.020116305229999966e+03
-1.016077254440000047e+03
-1.019600089870000033e+03
-1.017924269080000045e+03
-1.013407570190000001e+03
-1.016530839949999972e+03
-1.014409093470000016e+03
-1.017603027529999963e+03
-1.016033095089999961e+03
-1.013005465100000038e+03
-1.016762974910000025e+03
-1.011046042609999972e+03
-1.013596276890000013e+03
-1.019089703259999965e+03
-1.015767324479999957e+03
-1.017571579280000037e+03
-1.019673307339999951e+03
-1.014805393969999955e+03
-1.017062899570000013e+03
-1.019167349370000011e+03
-1.016536810859999946e+03
-1.014833511520000002e+03
-1.015448375719999945e+03
-1.017185628139999949e+03
-1.016172371150000004e+03
-1.018846452229999954e+03
-1.015153325859999995e+03
-1.019318966280000041e+03
-1.017648755739999956e+03
-1.015709891849999963e+03
-1.015383672120000028e+03
-1.015770289520000006e+03
-1.017842794059999960e+03
-1.018887047879999955e+03
-1.013672998069999949e+03
-1.016671489899999983e+03
-1.012032691689999979e+03
-1.015710853029999953e+03
-1.016545797519999951e+03
-1.014403406120000000e+03
-1.020609008929999959e+03
-1.015273019800000043e+03
-1.013134480179999969e+03
-1.013819622819999950e+03
-1.017605350499999986e+03
-1.019376930529999981e+03
-1.018026027239999962e+03
-1.019611124560000007e+03
-1.016870253860000048e+03
-1.012830419590000020e+03
-1.016674440359999949e+03
-1.016042456320000042e+03
-1.020631636169999979e+03
-1.017571290480000016e+03
-1.013721638529999950e+03
-1.018840211540000041e+03
-1.018314682589999961e+03
-1.015596143890000008e+03
-1.013957951340000022e+03
-1.018152009679999992e+03
-1.014825997489999963e+03
-1.019033840140000052e+03
-1.017406480890000012e+03
-1.020249579319999953e+03
-1.017071353219999992e+03
-1.016841907839999976e+03
-1.009126118420000012e+03
-1.019825614459999997e+03
-1.015917089329999953e+03
-1.018717364630000020e+03
-1.018493495609999968e+03
-1.017723091909999994e+03
-1.015758759550000036e+03
-1.016511457830000040e+03
-1.013604124339999998e+03
-1.016219625479999991e+03
-1.017025837499999966e+03
-1.014914037129999997e+03
-1.015357478440000023e+03
-1.013389591509999946e+03
-1.017644573609999952e+03
-1.016239782129999980e+03
-1.016347159830000010e+03
-1.017624388289999956e+03
-1.016908583639999961e+03
-1.015483455439999943e+03
-1.018079274650000002e+03
-1.016820724749999954e+03
-1.016752527750000013e+03
-1.017325523009999984e+03
-1.014149395460000051e+03
-1.015079264689999945e+03
-1.014631201690000012e+03
-1.018137698239999963e+03
-1.018568799389999981e+03
-1.013249075080000011e+03
-1.017808677569999986e+03
-1.018335324509999964e+03
-1.013032467030000021e+03
-1.020960248170000000e+03
-1.016394700479999983e+03
-1.018804716930000041e+03
-1.016023222110000006e+03
-1.016446454320000043e+03
-1.015781049850000045e+03
-1.017712269740000011e+03
-1.012648712179999961e+03
-1.016486248179999961e+03
-1.019568298099999993e+03
-1.015407497870000043e+03
-1.017666085250000037e+03
-1.011946579169999950e+03
-1.018612838340000053e+03
-1.014725795980000044e+03
-1.016518291650000037e+03
-1.016858663429999979e+03
-1.017144466510000029e+03
-1.014698398799999950e+03
-1.015313142269999958e+03
-1.015834432180000022e+03
-1.019841508289999979e+03
-1.012280192929999998e+03
-1.011718280639999989e+03
-1.014872247050000055e+03
-1.015122713490000024e+03