-6.107940830589356045e-04 -2.445498173630571235e-03 -2.819426985362236994e-03 -2.445498173630571235e-03 2.906246377303273610e-03 1.455070539498912272e-03 -2.819426985362236994e-03 1.455070539498912272e-03 -3.919823768782833631e-03
-4.766709176037428608e-03 1.887719469086887765e-03 -5.651399404067499604e-03 1.887719469086887765e-03 -1.189087379797571821e-02 4.068839799163296396e-05 -5.651399404067499604e-03 4.068839799163296396e-05 -1.089469773393912308e-02
1.255615625570361688e-02 5.697249530106238081e-05 -2.138172505781205362e-03 5.697249530106238081e-05 9.991613778515075206e-03 -4.811804079471935364e-03 -2.138172505781205362e-03 -4.811804079471935364e-03 2.089532425163197194e-04
3.362800286843381937e-03 -4.640699348294971723e-03 5.880437822950911921e-03 -4.640699348294971723e-03 -7.847418216427391735e-03 -2.938177937991292427e-03 5.880437822950911921e-03 -2.938177937991292427e-03 -9.114151218052776379e-03
-8.975964206005720633e-03 -6.748731606507287102e-03 -2.385935452042267386e-03 -6.748731606507287102e-03 -5.749927867128691930e-04 -6.782891385953246886e-03 -2.385935452042267386e-03 -6.782891385953246886e-03 1.223928732040077639e-03
-1.125206158045069516e-02 -8.667515066513696229e-03 -2.389661632990419584e-03 -8.667515066513696229e-03 -2.077642350278389831e-03 2.271410001091435284e-03 -2.389661632990419584e-03 2.271410001091435284e-03 -4.148949568794008287e-03
1.760667309320408311e-03 1.621119648283910570e-03 -4.042906328745251264e-03 1.621119648283910570e-03 -5.081318685036700575e-03 2.399454560808930628e-03 -4.042906328745251264e-03 2.399454560808930628e-03 -5.005153549173546948e-03
6.961897867683577643e-03 -4.354532396382350054e-03 2.003062557733210642e-03 -4.354532396382350054e-03 -3.605282916383946174e-03 -3.077057757551320515e-03 2.003062557733210642e-03 -3.077057757551320515e-03 1.532259282858710421e-03
-1.692229161755098420e-03 2.457818912645064625e-03 -8.897358640074347000e-03 2.457818912645064625e-03 -9.153547623655351045e-03 7.099560592964058482e-03 -8.897358640074347000e-03 7.099560592964058482e-03 -1.244913309872209412e-02
-3.285967309503759308e-03 -1.039005299658408510e-03 -5.651880000270193341e-03 -1.039005299658408510e-03 -3.094590156685926314e-03 -1.082173449225754674e-02 -5.651880000270193341e-03 -1.082173449225754674e-02 -1.576640157649216237e-02
3.582395302419332569e-03 -4.650841800624532126e-03 2.568349797755331565e-03 -4.650841800624532126e-03 -1.401406668185480563e-02 1.173952968469130437e-03 2.568349797755331565e-03 1.173952968469130437e-03 3.940545579080766136e-03
-8.032903384630389262e-03 1.080433940632371040e-02 2.971588736342145078e-03 1.080433940632371040e-02 -1.043190231527313210e-02 -7.536054292173579965e-03 2.971588736342145078e-03 -7.536054292173579965e-03 -2.393763552787949930e-02
7.329416649542961140e-03 4.028919106794147040e-03 6.494564871883069627e-03 4.028919106794147040e-03 -3.397334556836893987e-03 -2.273457216084725195e-03 6.494564871883069627e-03 -2.273457216084725195e-03 -5.544906775361679863e-03
-9.527320397658869955e-03 -9.407645701679186179e-03 -7.687398405457996839e-03 -9.407645701679186179e-03 -1.192084552479821162e-03 -3.025515375189776705e-03 -7.687398405457996839e-03 -3.025515375189776705e-03 -1.000617521930575841e-02
-9.219857416608735062e-03 -5.309901473753923361e-04 -7.378038005633591641e-03 -5.309901473753923361e-04 -5.170185291971026234e-03 3.919237066925000158e-03 -7.378038005633591641e-03 3.919237066925000158e-03 -1.138484344559473511e-02
5.686002330661396598e-03 -1.400419885592678370e-03 -2.837614742955061210e-03 -1.400419885592678370e-03 5.718583008298507020e-03 1.518403132599249706e-03 -2.837614742955061210e-03 1.518403132599249706e-03 4.309599772185116959e-03
-2.376348494024910305e-03 -8.719700324315204833e-04 -3.483742009175621809e-03 -8.719700324315204833e-04 1.352038203452481623e-02 -6.958471279173468341e-04 -3.483742009175621809e-03 -6.958471279173468341e-04 3.513301796395805129e-03
-1.336219722723843047e-03 1.439173415755287807e-03 8.973785919320787646e-03 1.439173415755287807e-03 1.591634759173237920e-03 -7.155347201531204321e-03 8.973785919320787646e-03 -7.155347201531204321e-03 -1.893886080103260403e-03
-1.783001301425556420e-02 3.969549871988745267e-03 3.933648711496665062e-04 3.969549871988745267e-03 -1.940022691410877090e-02 1.371943624356748541e-02 3.933648711496665062e-04 1.371943624356748541e-02 -9.126209813683982749e-04
-9.724533361509404492e-03 -3.632327375426398601e-03 9.654353832897972013e-03 -3.632327375426398601e-03 -1.304946641248605141e-02 3.268472359423907868e-03 9.654353832897972013e-03 3.268472359423907868e-03 -8.174360947459408111e-03
-4.192683823239071531e-03 3.051823336155374752e-03 -1.202972240999011962e-02 3.051823336155374752e-03 -1.062665612452806663e-02 1.218779487011224013e-03 -1.202972240999011962e-02 1.218779487011224013e-03 -1.599530268217480219e-02
-2.104168764063393295e-03 -4.324660533705873035e-03 5.175521782273657077e-04 -4.324660533705873035e-03 3.959501042296072713e-03 -2.384774531344852760e-03 5.175521782273657077e-04 -2.384774531344852760e-03 5.854079929912306759e-03
9.167747056916735610e-03 1.147563867884895993e-03 -1.876247575313514217e-03 1.147563867884895993e-03 -9.640372852455994165e-03 -1.753458366280013104e-03 -1.876247575313514217e-03 -1.753458366280013104e-03 -6.356153165507482522e-03
-7.123952410628010996e-03 -4.694831956943757746e-03 -3.805391940468889813e-03 -4.694831956943757746e-03 -1.180990894159476140e-02 1.432931906629404282e-03 -3.805391940468889813e-03 1.432931906629404282e-03 -3.434739921028311799e-03
-1.057998211928471154e-04 5.681870451620061983e-03 -4.857710379092806952e-03 5.681870451620061983e-03 -3.326955299933434789e-03 -5.070552081794551906e-03 -4.857710379092806952e-03 -5.070552081794551906e-03 -8.873553524268228501e-05
7.913297345251089345e-04 -3.828579146871545665e-03 5.168175526032491550e-03 -3.828579146871545665e-03 -2.882466227533657908e-03 -3.864174473416458113e-03 5.168175526032491550e-03 -3.864174473416458113e-03 -7.795276649189762132e-03
-1.413885941531771440e-02 -3.537181810311433756e-03 1.784478666635653079e-03 -3.537181810311433756e-03 -1.929962002850865721e-02 -3.914930425628140864e-03 1.784478666635653079e-03 -3.914930425628140864e-03 -1.666803126028987628e-02
-3.958433744235547239e-03 4.521717459828258553e-03 -3.437685913335729749e-03 4.521717459828258553e-03 4.307970738303260917e-03 -1.568079303732154445e-03 -3.437685913335729749e-03 -1.568079303732154445e-03 -1.377670208979746465e-02
3.387766323346914953e-04 -4.241130417074178219e-03 -3.207929720902840016e-03 -4.241130417074178219e-03 -5.427616335868081301e-03 -1.141387894604834440e-02 -3.207929720902840016e-03 -1.141387894604834440e-02 3.458551278343557217e-03
-1.352823385300517753e-02 1.340950786641262804e-03 1.263618488571569259e-03 1.340950786641262804e-03 -2.070881547593233021e-02 -5.432403573367634332e-03 1.263618488571569259e-03 -5.432403573367634332e-03 -4.270153434509534746e-03
8.732944806680329602e-03 -1.222649222669271553e-04 2.318215078026433611e-03 -1.222649222669271553e-04 2.670304849326634276e-03 -7.188970211192337203e-05 2.318215078026433611e-03 -7.188970211192337203e-05 8.353117768824703734e-03
1.109903850121141469e-02 2.553189172088560829e-03 -1.645174424455064744e-03 2.553189172088560829e-03 6.171803951965393678e-03 -1.106557152927842898e-04 -1.645174424455064744e-03 -1.106557152927842898e-04 -1.121224699373668472e-04
-8.494756335418372989e-04 2.588023034520115125e-03 5.478771744663820525e-03 2.588023034520115125e-03 -2.314832180080205262e-03 -5.844112239838271036e-04 5.478771744663820525e-03 -5.844112239838271036e-04 -2.600768196155169194e-03
8.284585998622506428e-03 4.431814762379037570e-03 -5.166521526114132602e-03 4.431814762379037570e-03 -1.009811264873001872e-02 1.373437841641484943e-03 -5.166521526114132602e-03 1.373437841641484943e-03 1.171331534636259157e-03
-1.108429605665607750e-04 4.936746609153866774e-03 6.768997786639030512e-03 4.936746609153866774e-03 1.523227819153557530e-03 -1.506344536968043119e-03 6.768997786639030512e-03 -1.506344536968043119e-03 -6.831943406173563577e-03
7.927147254001424767e-03 2.979740147260548627e-03 -4.886390113526240496e-03 2.979740147260548627e-03 -1.282318049912715302e-04 -3.655988936522621812e-03 -4.886390113526240496e-03 -3.655988936522621812e-03 -1.338957872777368427e-02
-1.341825222069798797e-02 2.952140193905892877e-03 -2.122955706532302003e-03 2.952140193905892877e-03 -1.539288470436280497e-02 3.623520606049777069e-03 -2.122955706532302003e-03 3.623520606049777069e-03 -2.055791450979584795e-02
2.302542648611341156e-03 -7.487545283247214710e-03 8.136943100249739713e-03 -7.487545283247214710e-03 -2.766736165321530879e-04 1.685594437554284149e-03 8.136943100249739713e-03 1.685594437554284149e-03 -7.182734943575580164e-03
-1.712420443777330509e-03 5.443157693591530247e-03 -8.353510983899635131e-03 5.443157693591530247e-03 -7.262757332078527764e-03 3.456173263366595669e-04 -8.353510983899635131e-03 3.456173263366595669e-04 -1.171551859908403007e-02
7.753140221080924129e-04 2.733281676406796624e-03 -4.776283651036533802e-03 2.733281676406796624e-03 2.924496549987355525e-03 1.365336362796088724e-03 -4.776283651036533802e-03 1.365336362796088724e-03 -4.379030319701442305e-03
-4.005313719280056452e-03 -5.474159269419792175e-03 1.252302632526342560e-03 -5.474159269419792175e-03 -4.560552129609505255e-03 -4.074669368686871344e-03 1.252302632526342560e-03 -4.074669368686871344e-03 -3.170686635948695424e-06
1.468502267137812957e-03 -2.226277648602173736e-03 -5.802287887185728250e-03 -2.226277648602173736e-03 -2.858860840019567646e-04 -3.753737210943079890e-03 -5.802287887185728250e-03 -3.753737210943079890e-03 -1.490534794352180994e-03
-1.281557209950270199e-02 -4.032795083961320144e-03 3.829577788331687497e-03 -4.032795083961320144e-03 -1.664890103481904762e-02 6.380694779390454425e-04 3.829577788331687497e-03 6.380694779390454425e-04 -1.213071626915603572e-02
1.354906801046737528e-03 -4.741299992385959033e-03 -2.638947507478197046e-03 -4.741299992385959033e-03 -6.394157714574984393e-03 -3.945950725983781056e-03 -2.638947507478197046e-03 -3.945950725983781056e-03 -4.861910914734526509e-03
-7.505377274819863623e-03 6.140696270481992014e-03 3.247301160468912210e-03 6.140696270481992014e-03 -4.662582079290318419e-03 -1.947856409514773417e-03 3.247301160468912210e-03 -1.947856409514773417e-03 1.931809489552127179e-03
1.394147168921165691e-02 4.827694961706434536e-03 1.296985596358541282e-04 4.827694961706434536e-03 1.369574347492563291e-03 3.297383029694999149e-03 1.296985596358541282e-04 3.297383029694999149e-03 -4.359475671610050368e-03
-6.589623055870272132e-03 6.593324270781919690e-03 6.175430268767532517e-03 6.593324270781919690e-03 -4.677386938936912986e-04 2.857400326884110883e-03 6.175430268767532517e-03 2.857400326884110883e-03 -7.429343210648352638e-03
1.492781113486586243e-02 -6.983349934549239017e-03 -1.405924896641707516e-03 -6.983349934549239017e-03 3.360459720921175723e-03 7.428456916352476702e-04 -1.405924896641707516e-03 7.428456916352476702e-04 -4.011030941639365070e-03
-1.628455293959561040e-02 -6.393015518404947597e-03 3.877418955781582882e-03 -6.393015518404947597e-03 -6.583874625965332496e-03 6.797097060723756960e-03 3.877418955781582882e-03 6.797097060723756960e-03 -9.391161876077726723e-04
-3.194685238537716115e-03 -6.828323330880549380e-03 -2.747362520994789566e-03 -6.828323330880549380e-03 -1.044042197522996023e-03 1.118540850449538599e-03 -2.747362520994789566e-03 1.118540850449538599e-03 1.335526915210870054e-03
-2.444518256697807666e-03 -5.583067362157329884e-03 9.545139906213266547e-04 -5.583067362157329884e-03 6.933811076617103081e-03 -5.588778343007512993e-03 9.545139906213266547e-04 -5.588778343007512993e-03 8.687931042864459677e-03
5.816062897826552135e-03 5.314663745216972185e-03 6.717280642021961588e-03 5.314663745216972185e-03 -4.070206689661863900e-03 6.384408477320354519e-03 6.717280642021961588e-03 6.384408477320354519e-03 -2.638785228240924253e-03
2.285309841914777169e-03 5.829719319793983529e-03 -4.190549227118019605e-04 5.829719319793983529e-03 5.756088236635939492e-03 -9.786374233928655554e-04 -4.190549227118019605e-04 -9.786374233928655554e-04 -4.659498773782131884e-03
-4.418170823429856328e-03 3.953839993518897152e-03 3.342315653892233111e-03 3.953839993518897152e-03 -2.907631992329219595e-03 -1.359569208363772342e-03 3.342315653892233111e-03 -1.359569208363772342e-03 -7.665072527314712066e-03
-1.270278178808886653e-02 -3.307999836718126566e-07 -3.505487426970199053e-03 -3.307999836718126566e-07 3.712923982768929522e-03 7.758988515131877775e-03 -3.505487426970199053e-03 7.758988515131877775e-03 7.733005112640825747e-03
-1.494446348121372149e-02 2.191044329586562533e-03 1.603056720873604355e-03 2.191044329586562533e-03 -4.424474747646998420e-03 2.521532237802080485e-03 1.603056720873604355e-03 2.521532237802080485e-03 -4.090048447173047497e-03
1.951270515006631266e-03 -1.358358355593351253e-03 -8.007294472686891235e-04 -1.358358355593351253e-03 4.489798382158492925e-03 7.361978602652694166e-03 -8.007294472686891235e-04 7.361978602652694166e-03 1.227611846575261262e-02
-1.332300054992788599e-02 -9.785781290561694837e-03 1.272681159822351867e-03 -9.785781290561694837e-03 -8.403517955016211183e-03 6.721712113501338015e-03 1.272681159822351867e-03 6.721712113501338015e-03 -4.686480817733325310e-03
9.445438039436407709e-03 -4.975793490245392515e-04 3.646832642634950921e-03 -4.975793490245392515e-04 4.661115324645736038e-03 -8.904136918985056939e-05 3.646832642634950921e-03 -8.904136918985056939e-05 -2.154406671017627950e-03
-3.476401994443583093e-03 -3.232708512132596683e-03 1.117273824096984454e-03 -3.232708512132596683e-03 -3.137363218725604253e-03 2.518448932293894816e-03 1.117273824096984454e-03 2.518448932293894816e-03 7.344889350666026877e-03
4.311284979649105190e-03 -1.555096964750317346e-03 -2.051315664785413953e-03 -1.555096964750317346e-03 -1.076691531760491606e-03 -1.283254276281597863e-04 -2.051315664785413953e-03 -1.283254276281597863e-04 -7.979382443875941353e-03
7.761066937670796318e-04 1.196940446579758486e-03 1.499453910893067989e-03 1.196940446579758486e-03 -1.392889504832300201e-02 -2.579734310400942122e-03 1.499453910893067989e-03 -2.579734310400942122e-03 -1.663605600903797933e-03
-9.032855561688146739e-03 -4.471042647235212958e-04 -2.267134567340205274e-03 -4.471042647235212958e-04 -6.235841835596955991e-03 -4.659729709619789620e-03 -2.267134567340205274e-03 -4.659729709619789620e-03 -7.197508595676544579e-03
2.616309553878618140e-03 8.368890062385812151e-03 6.541157737507788048e-03 8.368890062385812151e-03 1.954310129950936632e-03 -9.640447750565504619e-04 6.541157737507788048e-03 -9.640447750565504619e-04 8.511564719494376513e-03
-4.613611198688638559e-03 5.772865413166313950e-03 4.783380246912663329e-03 5.772865413166313950e-03 -1.429502821515644083e-02 6.451879190971153595e-03 4.783380246912663329e-03 6.451879190971153595e-03 -1.773950489042113235e-02
-5.522986595311577722e-04 1.705348813937705189e-03 -6.628607521870537788e-04 1.705348813937705189e-03 2.330311122712395641e-03 8.958762606854785496e-03 -6.628607521870537788e-04 8.958762606854785496e-03 -2.802013174901023251e-03
-6.611755447230653311e-04 -6.930340797543113260e-03 -2.047258683853589792e-03 -6.930340797543113260e-03 -1.668962688186543392e-02 -5.656142951003170598e-03 -2.047258683853589792e-03 -5.656142951003170598e-03 7.117548622264854678e-03
3.578369529033137691e-03 -4.989256425429922266e-03 -2.035412299532663328e-03 -4.989256425429922266e-03 6.287846089633815708e-03 -4.597426965525223085e-03 -2.035412299532663328e-03 -4.597426965525223085e-03 -4.133845116709370174e-03
-9.806971214044070059e-03 5.963343788670019338e-03 5.884307558608958648e-03 5.963343788670019338e-03 -1.510636822793913134e-02 2.126993962936748767e-03 5.884307558608958648e-03 2.126993962936748767e-03 -9.520773054585818240e-03
-1.419133802404814321e-02 6.739962286185420363e-03 3.738358132456903304e-03 6.739962286185420363e-03 -8.794198977241748927e-03 -6.779720699317298011e-03 3.738358132456903304e-03 -6.779720699317298011e-03 -2.472676200968317028e-02
-1.374472683854556683e-02 -8.304390307078933497e-04 4.825267014656465549e-03 -8.304390307078933497e-04 -1.162793150152051022e-03 -1.271888488163364648e-03 4.825267014656465549e-03 -1.271888488163364648e-03 1.250854602409138009e-03
1.070182886044020350e-02 -2.685584063666796636e-03 -4.046551370074766632e-03 -2.685584063666796636e-03 1.005806712617835332e-03 -2.739417079877539980e-03 -4.046551370074766632e-03 -2.739417079877539980e-03 1.127247755680145904e-03
-2.077043165402304992e-02 2.456533161765132867e-03 3.930346953169072677e-03 2.456533161765132867e-03 -3.727354351867970522e-03 -6.632358668855193977e-03 3.930346953169072677e-03 -6.632358668855193977e-03 -5.249702118234778926e-03
-3.077464703946328206e-02 3.130285347376852989e-03 7.218242888992728971e-03 3.130285347376852989e-03 -1.972692622628487852e-02 1.863446240096327958e-03 7.218242888992728971e-03 1.863446240096327958e-03 -1.022522722358775935e-02
-6.158459605454255116e-03 -1.341612386608606242e-04 -2.143671275321108564e-03 -1.341612386608606242e-04 -4.109234846226011810e-03 -1.689189546810793054e-03 -2.143671275321108564e-03 -1.689189546810793054e-03 -2.565728363922460935e-03
-6.466852571364146464e-03 -1.288284932637059812e-03 2.320131221328080012e-03 -1.288284932637059812e-03 9.282840485198022920e-03 2.430693313983976235e-03 2.320131221328080012e-03 2.430693313983976235e-03 -3.321718673776818606e-03
-1.433056736811921849e-03 1.477714734607616688e-03 1.153555716645743735e-03 1.477714734607616688e-03 2.710637481298092209e-03 -1.422933009009739493e-03 1.153555716645743735e-03 -1.422933009009739493e-03 3.089609432403471532e-04
-4.659891988857063280e-03 1.115033122320792467e-03 -4.421647344012972526e-03 1.115033122320792467e-03 3.528337591880057432e-03 2.169873130631566442e-03 -4.421647344012972526e-03 2.169873130631566442e-03 5.950854528909125911e-03
-3.822381328309544177e-03 3.286192003832290667e-03 -2.083727821676125422e-04 3.286192003832290667e-03 -1.296908825796292894e-02 2.405714794462191115e-03 -2.083727821676125422e-04 2.405714794462191115e-03 -8.303248110908897570e-03
-1.098129867306075168e-02 -6.614482986718663894e-03 -2.558506937863813408e-03 -6.614482986718663894e-03 6.083074658231837906e-03 -2.961596080231606015e-03 -2.558506937863813408e-03 -2.961596080231606015e-03 -2.570609224058900948e-03
7.215783734397130701e-03 -2.312791206596041132e-04 4.262126853773648763e-03 -2.312791206596041132e-04 4.245580613080932909e-03 6.220082025054100329e-03 4.262126853773648763e-03 6.220082025054100329e-03 -8.228605903272460248e-03
-2.244727549578284104e-03 6.011447099503201743e-04 1.437288479999270906e-03 6.011447099503201743e-04 -4.706865586538460343e-03 -3.788302688482221656e-03 1.437288479999270906e-03 -3.788302688482221656e-03 -3.711538367742983104e-03
2.865483081202129488e-03 9.828429522418856076e-03 7.013714876446659925e-03 9.828429522418856076e-03 3.922526342234340657e-03 -1.787817874018000257e-03 7.013714876446659925e-03 -1.787817874018000257e-03 4.215677542858825740e-03
6.772867522297078106e-03 -5.208289705184544283e-04 4.522441474886861913e-03 -5.208289705184544283e-04 2.622076708310934739e-03 1.886839416300138640e-03 4.522441474886861913e-03 1.886839416300138640e-03 3.526540037251803088e-03
-1.025428144856874342e-02 5.218120082057809903e-03 -1.523951834212159805e-03 5.218120082057809903e-03 -1.062842247161069169e-02 2.249152779548535888e-03 -1.523951834212159805e-03 2.249152779548535888e-03 -1.150788855650239709e-02
-5.061782761472686902e-03 -1.520275585337014894e-02 4.264386280077219014e-04 -1.520275585337014894e-02 7.312614506976084427e-04 -4.460787847741386550e-03 4.264386280077219014e-04 -4.460787847741386550e-03 1.413439673629270912e-03
3.341535465251497562e-03 -1.826146981560049449e-03 1.667044672432159338e-03 -1.826146981560049449e-03 -1.070939981100989952e-02 -8.402575487138203708e-03 1.667044672432159338e-03 -8.402575487138203708e-03 3.026526499668169556e-03
5.214350210545776534e-03 2.665748547664739362e-05 -4.260710031202073061e-03 2.665748547664739362e-05 1.044965940873626969e-03 -7.526242639827690657e-03 -4.260710031202073061e-03 -7.526242639827690657e-03 1.123421710585979479e-03
-1.025479949382619447e-05 2.007581410340349842e-03 -1.584151189731303807e-03 2.007581410340349842e-03 -4.036259121526185323e-04 3.866177997845866854e-03 -1.584151189731303807e-03 3.866177997845866854e-03 6.314484850583085285e-03
-1.693820746582198585e-03 6.230399239639186279e-03 1.681462558512949697e-04 6.230399239639186279e-03 -3.780856568095042011e-04 -6.827006372454988772e-03 1.681462558512949697e-04 -6.827006372454988772e-03 5.902707527512062770e-03
-2.046828019723904036e-03 -6.278795901401283686e-03 1.720883930152028408e-03 -6.278795901401283686e-03 -1.151587768818352828e-02 -3.351228528923994379e-03 1.720883930152028408e-03 -3.351228528923994379e-03 -3.335400061780754749e-04
-3.193979948006491886e-03 -3.829995969443121800e-03 6.162304375075800238e-04 -3.829995969443121800e-03 -4.278598196356855031e-03 5.069104051677347138e-04 6.162304375075800238e-04 5.069104051677347138e-04 -2.406813300068346741e-03
-9.131933277552416878e-03 3.564357341045530127e-03 -2.276228446136617165e-03 3.564357341045530127e-03 9.396217498469692066e-04 -8.609550171261618270e-03 -2.276228446136617165e-03 -8.609550171261618270e-03 -2.029863597919753446e-03
-1.341612386608606513e-03 -6.317025144797320385e-03 -6.254990785595165512e-03 -6.317025144797320385e-03 -3.176460031890136673e-03 -6.686416379394468680e-03 -6.254990785595165512e-03 -6.686416379394468680e-03 -2.973305151351763459e-03
1.273234781681817536e-02 -1.976161653400653612e-03 -2.304789591896659086e-03 -1.976161653400653612e-03 6.475546993576501882e-03 3.286510320797711177e-03 -2.304789591896659086e-03 3.286510320797711177e-03 2.205225038320569268e-03
-3.710433620627701535e-03 8.568655803468830205e-04 1.772341427989460386e-02 8.568655803468830205e-04 4.106707035030030331e-03 7.133046289424422887e-04 1.772341427989460386e-02 7.133046289424422887e-04 1.270283796167099959e-02
-1.475912186772061589e-02 7.619902725770694857e-03 2.762323418369530981e-03 7.619902725770694857e-03 -1.667745593906996143e-02 1.020049836443101066e-03 2.762323418369530981e-03 1.020049836443101066e-03 -1.793951405036006003e-02
-1.500554913102873818e-02 -2.942821620780949193e-03 -8.312647823652477216e-03 -2.942821620780949193e-03 -3.514387818983708868e-03 5.288711550271549440e-03 -8.312647823652477216e-03 5.288711550271549440e-03 -1.307135538499052362e-02
-1.021117134503626758e-03 9.049195832579709498e-03 1.367957796628959570e-03 9.049195832579709498e-03 -2.788675069899010633e-03 7.296823488887598831e-03 1.367957796628959570e-03 7.296823488887598831e-03 -4.064508191829933545e-03
-5.170322605171796121e-03 1.030682871389955457e-02 2.930644436476350766e-03 1.030682871389955457e-02 2.889818725283949162e-04 4.032620321705795464e-03 2.930644436476350766e-03 4.032620321705795464e-03 -8.053774991147344409e-03
2.630040873955561721e-03 -9.620150362888131926e-03 7.358751742434613101e-03 -9.620150362888131926e-03 3.655190023354508867e-03 -9.518051756606934685e-04 7.358751742434613101e-03 -9.518051756606934685e-04 5.310244756755845910e-03
-8.637874139674876078e-03 1.488887035942947773e-03 4.108548280222165845e-03 1.488887035942947773e-03 -1.197182617133842747e-02 5.260518653549935142e-03 4.108548280222165845e-03 5.260518653549935142e-03 -8.485937083023500221e-03
-1.067303053733337746e-02 3.520042626251758920e-03 1.258294481287190953e-03 3.520042626251758920e-03 -1.292982916556112069e-02 -9.887280711966808452e-03 1.258294481287190953e-03 -9.887280711966808452e-03 -1.506254035085717938e-02
1.186910341414463763e-03 -3.368792135604229787e-04 -1.305736192153029432e-03 -3.368792135604229787e-04 3.830975886375884826e-04 1.412284994440982447e-03 -1.305736192153029432e-03 1.412284994440982447e-03 -5.620766077277664433e-03
5.455634470334171787e-03 -1.168148364982058828e-03 4.049328841635784111e-03 -1.168148364982058828e-03 1.028945235249309823e-02 -2.042446480317533855e-03 4.049328841635784111e-03 -2.042446480317533855e-03 2.211304268209179566e-04
-7.568179339644501291e-03 4.484493099401491364e-03 1.289720479736012910e-03 4.484493099401491364e-03 7.912298703790947079e-04 -3.127245732432547623e-03 1.289720479736012910e-03 -3.127245732432547623e-03 -1.456811920545033777e-03
6.193305950904061732e-03 6.557298280107322352e-03 7.849446706893303382e-04 6.557298280107322352e-03 -5.016768997656816109e-03 -3.787784643224772693e-03 7.849446706893303382e-04 -3.787784643224772693e-03 -1.010221956173485043e-02
-7.175026679805114257e-03 2.424114763365295237e-03 2.903899569871941453e-03 2.424114763365295237e-03 5.215273953896407480e-03 -1.670864476017200253e-03 2.903899569871941453e-03 -1.670864476017200253e-03 1.126105559510109108e-03
-3.719034420203168670e-03 -2.518979460569594798e-03 5.301094704377301396e-03 -2.518979460569594798e-03 3.352077374165114438e-03 1.160777142704390611e-03 5.301094704377301396e-03 1.160777142704390611e-03 -1.022840415173283286e-02
-3.950201193698507293e-03 1.887014178555663103e-03 -5.990531802422365860e-03 1.887014178555663103e-03 6.620786910935805986e-03 3.710995356449030801e-03 -5.990531802422365860e-03 3.710995356449030801e-03 1.106885456307864224e-02
-1.716077968125098415e-03 5.935319412694803343e-03 -3.964119759049226574e-03 5.935319412694803343e-03 -2.047314857435722849e-02 -3.409099801539183620e-03 -3.964119759049226574e-03 -3.409099801539183620e-03 -8.234628959578936189e-03
7.293172206048957953e-03 -6.227628009587293442e-03 -4.945690691731257325e-03 -6.227628009587293442e-03 -9.791935418559815155e-03 3.590671543520253684e-03 -4.945690691731257325e-03 3.590671543520253684e-03 1.416448081027946778e-03
1.658044416272635947e-03 -3.778334998408185499e-03 5.344410777710932071e-03 -3.778334998408185499e-03 4.635862178722412880e-03 -1.570120277216318413e-03 5.344410777710932071e-03 -1.570120277216318413e-03 -5.634772023756145836e-04
-8.163288510270091253e-03 2.278475389421935528e-03 3.436000705871741084e-03 2.278475389421935528e-03 -6.795106019312599673e-03 3.826806558279795094e-03 3.436000705871741084e-03 3.826806558279795094e-03 -1.005108911897561498e-02
2.442471041704517756e-03 4.628515922481248220e-03 2.554662168242269587e-03 4.628515922481248220e-03 8.782702117431871389e-03 4.752853025777967894e-03 2.554662168242269587e-03 4.752853025777967894e-03 7.767720386398987986e-03
-5.638204853775382816e-03 3.095307930235402863e-03 9.977645281091348378e-03 3.095307930235402863e-03 4.333997831358194983e-03 2.905179079242747268e-03 9.977645281091348378e-03 2.905179079242747268e-03 1.214972166444435201e-03
-8.973473843864493080e-03 -3.496225027427388426e-03 6.091463246497025134e-03 -3.496225027427388426e-03 3.424990683773682359e-03 -5.441035580488730533e-04 6.091463246497025134e-03 -5.441035580488730533e-04 -8.614886661564248246e-03
-6.088592152299117935e-05 -5.205724444933806060e-03 3.668122430263338635e-03 -5.205724444933806060e-03 -8.419564874978857638e-03 6.645259868218394463e-03 3.668122430263338635e-03 6.645259868218394463e-03 4.287417448751727799e-04
-1.495034922431942581e-03 2.362411204146813357e-05 -9.440788115137623698e-03 2.362411204146813357e-05 1.133034258790752320e-02 -2.723170431622865722e-04 -9.440788115137623698e-03 -2.723170431622865722e-04 -9.020278920799491840e-03
1.017618768638569454e-02 1.800756522435956620e-03 4.855188809405950115e-03 1.800756522435956620e-03 3.622596862699146558e-03 -9.608441291767974915e-03 4.855188809405950115e-03 -9.608441291767974915e-03 1.651955824120336647e-02
-6.449076753373632342e-03 -5.722590057157324502e-04 -3.345492582037307497e-03 -5.722590057157324502e-04 1.404058685413068445e-03 7.736412976623556351e-04 -3.345492582037307497e-03 7.736412976623556351e-04 8.320306155349936226e-04
-1.038342451389239439e-02 -1.408071975781011436e-03 -6.911972036185637987e-04 -1.408071975781011436e-03 -3.728496548038007750e-03 -6.437242852070957115e-04 -6.911972036185637987e-04 -6.437242852070957115e-04 -8.360095776027441639e-03
-1.031183440421851519e-02 8.761019114728552061e-04 -1.558710798534203648e-03 8.761019114728552061e-04 -3.165431285264701418e-03 2.735678415911135461e-03 -1.558710798534203648e-03 2.735678415911135461e-03 1.570944156420934915e-03
9.416464954074058730e-03 3.855373945548962525e-03 4.821809218600726747e-03 3.855373945548962525e-03 1.083644572926725303e-03 2.281546211911869744e-03 4.821809218600726747e-03 2.281546211911869744e-03 -3.911179278643484893e-03
-1.084140772902233117e-02 -7.264754614998811429e-03 6.070160975850385533e-03 -7.264754614998811429e-03 1.738353914195375641e-03 -4.554928529887084161e-04 6.070160975850385533e-03 -4.554928529887084161e-04 -4.642877634979905577e-03
1.808354311494894326e-02 -1.416722707429485468e-03 8.891422964895631664e-03 -1.416722707429485468e-03 2.815192121420325225e-02 9.959825772536950051e-04 8.891422964895631664e-03 9.959825772536950051e-04 1.180294341741027625e-02
-3.899526381105460938e-03 -5.221584119622674647e-04 6.997199843299573355e-03 -5.221584119622674647e-04 4.204330479267969975e-03 -1.553911078016399598e-03 6.997199843299573355e-03 -1.553911078016399598e-03 1.635015120050864468e-02
8.623056797010029625e-03 3.717967122142642761e-03 -4.352335385170039671e-03 3.717967122142642761e-03 8.613295076737149600e-03 -2.969397966638960096e-04 -4.352335385170039671e-03 -2.969397966638960096e-04 -6.085471397736176742e-04
-3.109388774823395804e-03 -2.536299648393920908e-04 1.670539917542653962e-04 -2.536299648393920908e-04 -1.947935052529759306e-02 -3.764060667037290916e-03 1.670539917542653962e-04 -3.764060667037290916e-03 -6.382779443438500212e-03
-4.343840691249712706e-04 -1.311615693749611494e-03 -5.119760139743015012e-03 -1.311615693749611494e-03 -1.248596424407393164e-02 -4.919339040201777674e-03 -5.119760139743015012e-03 -4.919339040201777674e-03 -9.922720000783574051e-03