-3.008537099999999919e+04
-3.008467589999999836e+04
-3.008569499999999971e+04
-3.008791379999999845e+04
-3.008714140000000043e+04
-3.008417039999999906e+04
-3.008453159999999843e+04
-3.008691649999999936e+04
-3.008199810000000070e+04
-3.008701729999999952e+04
-3.008885520000000179e+04
-3.008639749999999913e+04
-3.008707540000000154e+04
-3.008333840000000055e+04
-3.008414140000000043e+04
-3.008871870000000126e+04
-3.008422869999999966e+04
-3.008506339999999909e+04
-3.008933750000000146e+04
-3.008829379999999946e+04
-3.008337819999999920e+04
-3.008859790000000066e+04
-3.008723089999999866e+04
-3.008178930000000037e+04
-3.008437129999999888e+04
-3.008659309999999823e+04
-3.008858520000000135e+04
-3.008915480000000025e+04
-3.008166579999999885e+04
-3.008670880000000034e+04
-3.008768059999999969e+04
-3.008467199999999866e+04
-3.008591540000000168e+04
-3.008629430000000139e+04
-3.008775930000000153e+04
-3.008573099999999977e+04
-3.008240899999999965e+04
-3.008395520000000033e+04
-3.008513720000000103e+04
-3.008535429999999906e+04
-3.008251420000000144e+04
-3.008919199999999910e+04
-3.008205480000000171e+04
-3.008757070000000022e+04
-3.007953649999999834e+04
-3.008335440000000017e+04
-3.008132099999999991e+04
-3.008375860000000102e+04
-3.008331780000000072e+04
-3.008563230000000112e+04
-3.008290480000000025e+04
-3.008718070000000080e+04
-3.008107389999999941e+04
-3.008634479999999894e+04
-3.008206330000000162e+04
-3.008492640000000029e+04
-3.008830830000000060e+04
-3.008780219999999827e+04
-3.008355789999999979e+04
-3.008470479999999952e+04
-3.008423270000000048e+04
-3.008776190000000133e+04
-3.008633729999999923e+04
-3.008562480000000141e+04
-3.008269120000000112e+04
-3.008452189999999973e+04
-3.008511339999999836e+04
-3.008384979999999996e+04
-3.008538460000000123e+04
-3.008450460000000021e+04
-3.008867959999999948e+04
-3.008900249999999869e+04
-3.008899390000000130e+04
-3.008419770000000062e+04
-3.008566960000000108e+04
-3.008394169999999940e+04
-3.008610369999999966e+04
-3.008536750000000029e+04
-3.008524740000000020e+04
-3.008506680000000051e+04
-3.008594830000000002e+04
-3.008607649999999921e+04
-3.008286639999999898e+04
-3.008127490000000034e+04
-3.008536760000000140e+04
-3.008902620000000024e+04
-3.008588699999999881e+04
-3.009032040000000052e+04
-3.008736639999999898e+04
-3.008834779999999955e+04
-3.008670850000000064e+04
-3.008482540000000154e+04
-3.008812960000000021e+04
-3.008366549999999916e+04
-3.008186300000000119e+04
-3.008410329999999885e+04
-3.008670109999999841e+04
-3.008056179999999949e+04
-3.008469580000000133e+04
-3.008102660000000105e+04
-3.008408469999999943e+04
-3.008640629999999874e+04
-3.008527409999999873e+04
-3.008677079999999842e+04
-3.008762240000000020e+04
-3.008605879999999888e+04
-3.008228440000000046e+04
-3.008187919999999940e+04
-3.008658910000000105e+04
-3.008074829999999929e+04
-3.008696340000000055e+04
-3.008359119999999893e+04
-3.008026949999999852e+04
-3.008437329999999929e+04
-3.008631169999999838e+04
-3.008310410000000047e+04
-3.008651030000000173e+04
-3.008802219999999943e+04
-3.008561809999999969e+04
-3.008942459999999846e+04
-3.008813880000000063e+04
-3.008412320000000182e+04
-3.008484149999999863e+04
-3.008603570000000036e+04
-3.008260459999999875e+04
-3.008772499999999854e+04
-3.008564719999999943e+04
-3.007996319999999832e+04
-3.008521099999999933e+04
-3.008369289999999819e+04
-3.008944510000000082e+04
-3.008490989999999874e+04
-3.008590290000000095e+04
-3.008622969999999987e+04
-3.009029230000000098e+04
-3.008836119999999937e+04
-3.008492079999999987e+04
-3.008244810000000143e+04
-3.008432119999999850e+04
-3.008393799999999828e+04
-3.008513669999999911e+04
-3.008492929999999978e+04
-3.008573449999999866e+04
-3.008623470000000088e+04
-3.008610099999999875e+04
-3.008571470000000045e+04
-3.008841140000000087e+04
-3.008798459999999977e+04
-3.008279270000000179e+04
-3.008622869999999966e+04
-3.008900310000000172e+04
-3.008485610000000088e+04
-3.008340429999999833e+04
-3.008468119999999908e+04
-3.008374740000000020e+04
-3.008553280000000086e+04
-3.008868170000000100e+04
-3.008571050000000105e+04
-3.008524320000000080e+04
-3.008681590000000142e+04
-3.008772009999999864e+04
-3.008173020000000179e+04
-3.008520249999999942e+04
-3.008004999999999927e+04
-3.008480389999999898e+04
-3.008325029999999970e+04
-3.008561089999999967e+04
-3.008699339999999938e+04
-3.008298119999999835e+04
-3.008600089999999909e+04
-3.008533970000000045e+04
-3.008697850000000108e+04
-3.008488499999999840e+04
-3.008900660000000062e+04
-3.008491890000000058e+04
-3.008528059999999823e+04
-3.008378600000000006e+04
-3.008571549999999843e+04
-3.008446589999999924e+04
-3.008426380000000063e+04
-3.008293140000000130e+04
-3.008622200000000157e+04
-3.008364900000000125e+04
-3.008618140000000130e+04
-3.008580949999999939e+04
-3.008198979999999938e+04
-3.008958980000000156e+04
-3.008383450000000084e+04
-3.008876689999999871e+04
-3.008174680000000080e+04
-3.008608320000000094e+04
-3.008332930000000124e+04
-3.008291479999999865e+04
-3.008195620000000054e+04
-3.008987220000000161e+04
-3.008355189999999857e+04
-3.008568460000000050e+04
-3.008197669999999925e+04
-3.008518909999999960e+04
-3.008682400000000052e+04
-3.008208299999999872e+04
-3.008381379999999990e+04
-3.008854959999999846e+04
-3.008189589999999953e+04
-3.008735829999999987e+04
-3.008418300000000090e+04
-3.008530730000000040e+04
-3.008602939999999944e+04
-3.008358980000000156e+04
-3.008632779999999912e+04
-3.008745170000000144e+04
-3.008268909999999960e+04
-3.008396870000000126e+04
-3.008540840000000026e+04
-3.008334330000000045e+04
-3.008610480000000098e+04
-3.008204939999999988e+04
-3.008401369999999952e+04
-3.008646860000000015e+04
-3.008913650000000052e+04
-3.008474889999999868e+04
-3.008296510000000126e+04
-3.008973359999999957e+04
-3.008827899999999863e+04
-3.008172720000000118e+04
-3.008400230000000010e+04
-3.008617750000000160e+04
-3.008779620000000068e+04
-3.008611569999999847e+04
-3.008403250000000116e+04
-3.008001199999999881e+04
-3.008792160000000149e+04
-3.008163720000000103e+04
-3.008906940000000031e+04
-3.009086669999999867e+04
-3.008170769999999902e+04
-3.008595040000000154e+04
-3.008742880000000150e+04
-3.008280180000000109e+04
-3.008740399999999863e+04
-3.008920760000000155e+04
-3.008449220000000059e+04
-3.008185989999999947e+04
-3.008401259999999820e+04
-3.008074480000000040e+04
-3.008489459999999963e+04
-3.008819749999999840e+04
-3.008573370000000068e+04
-3.008326949999999852e+04
-3.008711460000000079e+04
-3.007969029999999839e+04
-3.008774840000000040e+04
-3.008726109999999971e+04
-3.008427279999999882e+04
-3.008935910000000149e+04
-3.008189860000000044e+04
-3.008314429999999993e+04
-3.008790650000000096e+04
-3.008522889999999825e+04
-3.008737289999999848e+04
-3.008370460000000094e+04
-3.008514860000000044e+04
-3.008302549999999974e+04
-3.008454049999999916e+04
-3.008333139999999912e+04
-3.008809990000000107e+04
-3.008619410000000062e+04
-3.008529709999999977e+04
-3.008806970000000001e+04
-3.008509500000000116e+04
-3.008596310000000085e+04
-3.008462240000000020e+04
-3.008094959999999992e+04
-3.008622469999999885e+04
-3.008626320000000123e+04
-3.008424199999999837e+04
-3.008311119999999937e+04
-3.008409370000000126e+04
-3.008434490000000005e+04
-3.008783599999999933e+04
-3.008558269999999902e+04
-3.008425700000000143e+04
-3.008692290000000139e+04
-3.008320339999999851e+04
-3.008645820000000094e+04
-3.008350530000000072e+04
-3.008620760000000155e+04
-3.008689860000000044e+04
-3.008156499999999869e+04
-3.008517919999999867e+04
-3.008279899999999907e+04
-3.008574940000000061e+04
-3.008375649999999951e+04
-3.008551220000000103e+04
-3.007856120000000010e+04
-3.008324580000000060e+04
-3.008432890000000043e+04
-3.008536509999999907e+04
-3.008748870000000170e+04
-3.008818070000000080e+04
-3.008468620000000010e+04
-3.008516430000000037e+04
-3.008256680000000051e+04
-3.008646529999999984e+04
-3.008254219999999987e+04
-3.008290480000000025e+04
-3.008433620000000155e+04
-3.008450779999999941e+04
-3.008976670000000013e+04
-3.008592290000000139e+04
-3.008516050000000178e+04
-3.008664069999999992e+04
-3.009091080000000147e+04
-3.008669859999999971e+04
-3.007929249999999956e+04
-3.008465190000000075e+04
-3.008211419999999998e+04
-3.008325820000000022e+04
-3.008548760000000038e+04
-3.008604160000000047e+04
-3.008633109999999942e+04
-3.008565160000000105e+04
-3.008688530000000173e+04
-3.008986270000000150e+04
-3.008358000000000175e+04
-3.008585540000000037e+04
-3.008665910000000076e+04
-3.008602809999999954e+04
-3.008362840000000142e+04
-3.008380939999999828e+04
-3.008861309999999867e+04
-3.008434000000000015e+04
-3.008714970000000176e+04
-3.008430559999999969e+04
-3.008276529999999912e+04
-3.008468309999999838e+04
-3.008581910000000062e+04
-3.008539289999999892e+04
-3.008494359999999870e+04
-3.008262329999999929e+04
-3.008443530000000101e+04
-3.008712500000000000e+04
-3.008414040000000023e+04
-3.008615590000000157e+04
-3.008219039999999950e+04
-3.009070539999999892e+04
-3.008774580000000060e+04
-3.008836219999999958e+04
-3.008780489999999918e+04
-3.008643799999999828e+04
-3.008649139999999898e+04
-3.008300600000000122e+04
-3.008521700000000055e+04
-3.008535199999999895e+04
-3.008515810000000056e+04
-3.008751459999999861e+04
-3.008394259999999849e+04
-3.008431239999999889e+04
-3.008613669999999911e+04
-3.008771919999999955e+04
-3.008519310000000041e+04
-3.008710989999999947e+04
-3.008854539999999906e+04
-3.008069139999999970e+04
-3.008713060000000041e+04
-3.008473979999999938e+04
-3.008372940000000017e+04
-3.008821410000000105e+04
-3.008388090000000011e+04
-3.008375300000000061e+04
-3.008158899999999994e+04
-3.008181480000000010e+04
-3.008734170000000086e+04
-3.008534110000000146e+04
-3.008524899999999980e+04
-3.008454290000000037e+04
-3.008167959999999948e+04
-3.008158880000000136e+04
-3.008564440000000104e+04
-3.008074480000000040e+04
-3.008739789999999994e+04
-3.008653719999999885e+04
-3.008630700000000070e+04
-3.008390669999999955e+04
-3.008810399999999936e+04
-3.008538149999999951e+04
-3.008676420000000144e+04
-3.008268040000000110e+04
-3.008655159999999887e+04
-3.008355789999999979e+04
-3.008447520000000077e+04
-3.008124429999999847e+04
-3.008653199999999924e+04
-3.008261079999999856e+04
-3.008629550000000017e+04
-3.008132560000000012e+04
-3.008418899999999849e+04
-3.008652349999999933e+04
-3.008407819999999992e+04
-3.008730189999999857e+04
-3.008339990000000034e+04
-3.008522989999999845e+04
-3.008453550000000178e+04
-3.008418490000000020e+04
-3.008287619999999879e+04
-3.008209379999999874e+04
-3.008364530000000013e+04
-3.008415030000000115e+04
-3.008738509999999951e+04
-3.008815000000000146e+04
-3.008372520000000077e+04
-3.008510789999999906e+04
-3.008564570000000094e+04
-3.009023679999999877e+04
-3.008820379999999932e+04
-3.008693340000000171e+04
-3.008588090000000011e+04
-3.008227010000000155e+04
-3.008474490000000151e+04
-3.008324610000000030e+04
-3.008589479999999821e+04
-3.008467599999999948e+04
-3.008666900000000169e+04
-3.008650049999999828e+04
-3.008393300000000090e+04
-3.008322799999999916e+04
-3.008798359999999957e+04
-3.007869959999999992e+04
-3.008146020000000135e+04
-3.008434289999999964e+04
-3.008560459999999875e+04
-3.008574810000000070e+04
-3.008756769999999960e+04
-3.008761149999999907e+04
-3.008326770000000033e+04
-3.008712610000000132e+04
-3.008819090000000142e+04
-3.008518739999999889e+04
-3.008418019999999888e+04
-3.008190009999999893e+04
-3.008630240000000049e+04
-3.008527049999999872e+04
-3.008672430000000168e+04
-3.008645939999999973e+04
-3.008347200000000157e+04
-3.008699520000000120e+04
-3.008864150000000154e+04
-3.008125670000000173e+04
-3.008406910000000062e+04
-3.008838190000000031e+04
-3.008491119999999864e+04
-3.008752590000000055e+04
-3.008420449999999983e+04
-3.008601090000000113e+04
-3.008580169999999998e+04
-3.008340330000000176e+04
-3.008642180000000008e+04
-3.008610940000000119e+04
-3.008680900000000111e+04
-3.008206639999999970e+04
-3.008739519999999902e+04
-3.008441500000000087e+04
-3.008562489999999889e+04
-3.008779339999999866e+04
-3.008381450000000041e+04
-3.008406680000000051e+04
-3.008151109999999971e+04
-3.008592079999999987e+04
-3.008679620000000068e+04
-3.008759070000000065e+04
-3.008413379999999961e+04
-3.008268319999999949e+04
-3.008394680000000153e+04
-3.008608399999999892e+04
-3.008939410000000134e+04
-3.008761390000000029e+04
-3.008752089999999953e+04
-3.008421510000000126e+04
-3.008904300000000148e+04
-3.008515850000000137e+04
-3.008635910000000149e+04
-3.008523670000000129e+04
-3.008592610000000059e+04
-3.008499000000000160e+04
-3.008693049999999857e+04
-3.008358720000000176e+04
-3.008699840000000040e+04
-3.008210949999999866e+04
-3.008476060000000143e+04
-3.008136409999999887e+04
-3.008547430000000168e+04
-3.008646849999999904e+04
-3.008721549999999843e+04
-3.008753900000000067e+04
-3.008462199999999939e+04
-3.008673070000000007e+04
-3.008854990000000180e+04
-3.008790919999999824e+04
-3.008583220000000074e+04
-3.008205579999999827e+04
-3.008813130000000092e+04
-3.008142719999999827e+04
-3.008688000000000102e+04
-3.008381360000000132e+04
-3.008624940000000061e+04
-3.008653190000000177e+04
-3.008411799999999857e+04
-3.008771410000000105e+04
-3.008778389999999854e+04
-3.008705519999999888e+04
-3.008655679999999847e+04
-3.008928150000000096e+04
-3.008286999999999898e+04
-3.008561339999999836e+04
-3.008776759999999922e+04
-3.008397119999999995e+04
-3.008646689999999944e+04
-3.008711419999999998e+04
-3.008321840000000157e+04
-3.008558469999999943e+04
-3.008668509999999878e+04
-3.008455240000000049e+04
-3.008496220000000176e+04
-3.008278059999999823e+04
-3.008435599999999977e+04
-3.008712059999999838e+04
-3.008459170000000086e+04
-3.008583120000000054e+04
-3.008662120000000141e+04
-3.008560940000000119e+04
-3.008784230000000025e+04
-3.008466660000000047e+04
-3.008783650000000125e+04
-3.008574190000000090e+04
-3.008739280000000144e+04
-3.008462730000000010e+04
-3.008705440000000090e+04
-3.008858039999999892e+04
-3.008951169999999911e+04
-3.008698150000000169e+04
-3.008636920000000100e+04
-3.008771589999999924e+04
-3.008802880000000005e+04
-3.007873470000000088e+04
-3.008688660000000164e+04
-3.009134409999999843e+04
-3.008271949999999924e+04
-3.008455819999999949e+04
-3.008657819999999992e+04
-3.008424190000000090e+04
-3.008101390000000174e+04
-3.008352319999999963e+04
-3.008501280000000042e+04
-3.008585020000000077e+04
-3.008419689999999900e+04
-3.008496380000000136e+04
-3.008394540000000052e+04
-3.008632440000000133e+04
-3.009125790000000052e+04
-3.008636880000000019e+04
-3.008587870000000112e+04
-3.008295820000000094e+04
-3.008223150000000169e+04
-3.008778989999999976e+04
-3.008680229999999938e+04
-3.008174889999999868e+04
-3.008511469999999827e+04
-3.008890250000000015e+04
-3.008302460000000065e+04
-3.008613580000000002e+04
-3.008568470000000161e+04
-3.008309709999999905e+04
-3.008150040000000081e+04
-3.008608589999999822e+04
-3.008441619999999966e+04
-3.008452750000000015e+04
-3.008539370000000054e+04
-3.008116589999999997e+04
-3.008933669999999984e+04
-3.008828180000000066e+04
-3.008722629999999845e+04
-3.008778510000000097e+04
-3.008334649999999965e+04
-3.008061149999999907e+04
-3.008969700000000012e+04
-3.008271600000000035e+04
-3.008576610000000073e+04
-3.008843089999999938e+04
-3.008579119999999966e+04
-3.008605159999999887e+04
-3.008489800000000105e+04
-3.008907379999999830e+04
-3.008687889999999970e+04
-3.008913560000000143e+04
-3.008756120000000010e+04
-3.008365799999999945e+04
-3.008725779999999941e+04
-3.008529130000000077e+04
-3.008519269999999960e+04
-3.008758009999999922e+04
-3.008226710000000094e+04
-3.008596140000000014e+04
-3.009060129999999845e+04
-3.008590030000000115e+04
-3.008214470000000074e+04
-3.008713339999999880e+04
-3.008281520000000091e+04
-3.008691289999999935e+04
-3.008490899999999965e+04
-3.008411390000000029e+04
-3.007956970000000001e+04
-3.008535540000000037e+04
-3.008331179999999949e+04
-3.008692850000000180e+04
-3.008745599999999831e+04
-3.008511769999999888e+04
-3.008491080000000147e+04
-3.008167439999999988e+04
-3.008160930000000008e+04
-3.008497720000000118e+04
-3.008549740000000020e+04
-3.008741909999999916e+04
-3.008327509999999893e+04
-3.008539180000000124e+04
-3.008524569999999949e+04
-3.008651150000000052e+04
-3.008877920000000086e+04
-3.008408290000000125e+04
-3.008336850000000049e+04
-3.008185749999999825e+04
-3.008631810000000041e+04
-3.008799799999999959e+04
-3.008721529999999984e+04
-3.008457489999999962e+04
-3.008505730000000040e+04
-3.008867569999999978e+04
-3.008192439999999988e+04
-3.008639129999999932e+04
-3.008453210000000036e+04
-3.008321940000000177e+04
-3.008256000000000131e+04
-3.008212489999999889e+04
-3.008324820000000182e+04
-3.008876450000000114e+04
-3.008374659999999858e+04
-3.008480679999999847e+04
-3.008149710000000050e+04
-3.008640100000000166e+04
-3.008760399999999936e+04
-3.008758490000000165e+04
-3.008891159999999945e+04
-3.008198280000000159e+04
-3.008204279999999926e+04
-3.008552890000000116e+04
-3.008386170000000129e+04
-3.008631509999999980e+04
-3.008826099999999860e+04
-3.008673809999999867e+04
-3.008133039999999892e+04
-3.008756169999999838e+04
-3.008991500000000087e+04
-3.008525419999999940e+04
-3.008772249999999985e+04
-3.008243830000000162e+04
-3.008733280000000013e+04
-3.008540320000000065e+04
-3.008257960000000094e+04
-3.008402869999999893e+04
-3.008791149999999834e+04
-3.008174950000000172e+04
-3.008420760000000155e+04
-3.008924179999999978e+04
-3.008420230000000083e+04
-3.008670260000000053e+04
-3.008623570000000109e+04
-3.008601139999999941e+04
-3.008576780000000144e+04
-3.008440929999999935e+04
-3.008848489999999947e+04
-3.008620400000000154e+04
-3.008422200000000157e+04
-3.008571749999999884e+04
-3.008165539999999964e+04
-3.008666310000000158e+04
-3.008478729999999996e+04
-3.008570439999999871e+04
-3.008768270000000120e+04
-3.008666129999999976e+04
-3.008979279999999926e+04
-3.008615269999999873e+04
-3.008632779999999912e+04
-3.008604520000000048e+04
-3.008389990000000034e+04
-3.008372769999999946e+04
-3.008830350000000180e+04
-3.008580340000000069e+04
-3.008231379999999990e+04
-3.008516760000000068e+04
-3.008153029999999853e+04
-3.008602500000000146e+04
-3.008586189999999988e+04
-3.008829990000000180e+04
-3.008463599999999860e+04
-3.008542850000000180e+04
-3.008429859999999826e+04
-3.008734899999999834e+04
-3.008498219999999856e+04
-3.008391419999999925e+04
-3.008379079999999885e+04
-3.008632509999999820e+04
-3.008411720000000059e+04
-3.008630679999999847e+04
-3.007822499999999854e+04
-3.008391080000000147e+04
-3.008307149999999820e+04
-3.008224759999999878e+04
-3.008628759999999966e+04
-3.008528900000000067e+04
-3.008257879999999932e+04
-3.008843999999999869e+04
-3.008360120000000097e+04
-3.008465169999999853e+04
-3.008507310000000143e+04
-3.008627850000000035e+04
-3.008479040000000168e+04
-3.008375950000000012e+04
-3.008542150000000038e+04
-3.008440320000000065e+04
-3.008573310000000129e+04
-3.008617060000000129e+04
-3.009012129999999888e+04
-3.008366119999999864e+04
-3.008720290000000023e+04
-3.008269619999999850e+04
-3.008040740000000005e+04
-3.008401440000000002e+04
-3.008016579999999885e+04
-3.008611950000000070e+04
-3.008579349999999977e+04
-3.009156009999999878e+04
-3.008414189999999871e+04
-3.008763959999999861e+04
-3.008630679999999847e+04
-3.008687429999999949e+04
-3.008703229999999894e+04
-3.008769729999999981e+04
-3.008741860000000088e+04
-3.008351929999999993e+04
-3.008548679999999877e+04
-3.008491080000000147e+04
-3.008216500000000087e+04
-3.008746800000000076e+04
-3.008110680000000139e+04
-3.008469970000000103e+04
-3.008516059999999925e+04
-3.008534119999999893e+04
-3.009006880000000092e+04
-3.008496220000000176e+04
-3.008386850000000049e+04
-3.008811730000000171e+04
-3.008219069999999920e+04
-3.008078729999999996e+04
-3.008263929999999891e+04
-3.008665729999999894e+04
-3.008342989999999918e+04
-3.008763249999999971e+04
-3.008515130000000136e+04
-3.008704349999999977e+04
-3.008625939999999900e+04
-3.008404639999999927e+04
-3.008341830000000118e+04
-3.008257790000000023e+04
-3.008375609999999870e+04
-3.008308829999999944e+04
-3.008609590000000026e+04
-3.009025560000000041e+04
-3.008583410000000003e+04
-3.008359379999999874e+04
-3.008795400000000154e+04
-3.008233859999999913e+04
-3.008481820000000153e+04
-3.008646220000000176e+04
-3.008474699999999939e+04
-3.008525389999999970e+04
-3.008722880000000077e+04
-3.008115840000000026e+04
-3.008358099999999831e+04
-3.008424169999999867e+04
-3.009084519999999975e+04
-3.008513039999999819e+04
-3.008588880000000063e+04
-3.008547509999999966e+04
-3.008461630000000150e+04
-3.008227660000000105e+04
-3.008762229999999909e+04
-3.008467810000000100e+04
-3.008729969999999958e+04
-3.008572869999999966e+04
-3.008291670000000158e+04
-3.008871789999999964e+04
-3.008613119999999981e+04
-3.008738999999999942e+04
-3.008439059999999881e+04
-3.008414370000000054e+04
-3.008721329999999944e+04
-3.008133099999999831e+04
-3.008212559999999939e+04
-3.008309110000000146e+04
-3.007806309999999939e+04
-3.008524120000000039e+04
-3.008554839999999967e+04
-3.007721930000000066e+04
-3.008589349999999831e+04
-3.008525920000000042e+04
-3.008639579999999842e+04
-3.008925289999999950e+04
-3.008625639999999839e+04
-3.008541660000000047e+04
-3.008573389999999927e+04
-3.007979270000000179e+04
-3.008772239999999874e+04
-3.008838709999999992e+04
-3.008551919999999882e+04
-3.007899989999999889e+04
-3.008755340000000069e+04
-3.008546960000000036e+04
-3.008557649999999921e+04
-3.008356279999999970e+04
-3.008792889999999898e+04
-3.008508380000000034e+04
-3.008678429999999935e+04
-3.008782519999999931e+04
-3.008775360000000001e+04
-3.008801550000000134e+04
-3.008530140000000029e+04
-3.008425129999999990e+04
-3.008336899999999878e+04
-3.007950289999999950e+04
-3.008380029999999897e+04
-3.008591560000000027e+04
-3.008687649999999849e+04
-3.008530619999999908e+04
-3.008271919999999955e+04
-3.008400730000000112e+04
-3.008564540000000125e+04
-3.008919450000000143e+04
-3.008673900000000140e+04
-3.008578589999999895e+04
-3.009119680000000153e+04
-3.008537459999999919e+04
-3.008663550000000032e+04
-3.008637129999999888e+04
-3.008420049999999901e+04
-3.007993600000000151e+04
-3.008868159999999989e+04
-3.008548289999999906e+04
-3.008233669999999984e+04
-3.008549049999999988e+04
-3.008715320000000065e+04
-3.008703729999999996e+04
-3.008643850000000020e+04
-3.008762359999999899e+04
-3.008453960000000006e+04
-3.008654049999999916e+04
-3.008455949999999939e+04
-3.008441909999999916e+04
-3.008712879999999859e+04
-3.008392429999999877e+04
-3.008674250000000029e+04
-3.008791229999999996e+04
-3.008586040000000139e+04
-3.008973110000000088e+04
-3.008660210000000006e+04
-3.008264150000000154e+04
-3.008653080000000045e+04
-3.008773559999999998e+04
-3.007943479999999909e+04
-3.008509679999999935e+04
-3.008142359999999826e+04
-3.008248519999999917e+04
-3.008783169999999882e+04
-3.008811539999999877e+04
-3.008363170000000173e+04
-3.008529030000000057e+04
-3.008348140000000058e+04
-3.008715420000000086e+04
-3.008620460000000094e+04
-3.008780329999999958e+04
-3.008618999999999869e+04
-3.008797810000000027e+04
-3.008281019999999990e+04
-3.008426900000000023e+04
-3.008603269999999975e+04
-3.009060229999999865e+04
-3.008652070000000094e+04
-3.008684909999999945e+04
-3.008771759999999995e+04
-3.008406100000000151e+04
-3.008645140000000174e+04
-3.008321399999999994e+04
-3.008174580000000060e+04
-3.008793700000000172e+04
-3.008328919999999925e+04
-3.008426970000000074e+04
-3.008383309999999983e+04
-3.008748709999999846e+04
-3.008575100000000020e+04
-3.008847999999999956e+04
-3.008380630000000019e+04
-3.008395319999999992e+04
-3.008404890000000159e+04
-3.008589879999999903e+04
-3.008242359999999826e+04
-3.008420249999999942e+04
-3.008843909999999960e+04
-3.008503039999999964e+04
-3.008765239999999903e+04
-3.008421410000000105e+04
-3.008346870000000126e+04
-3.008555329999999958e+04
-3.008272769999999946e+04
-3.008460570000000007e+04
-3.008488409999999931e+04
-3.008482549999999901e+04
-3.008710680000000139e+04
-3.008585259999999835e+04
-3.008450839999999880e+04
-3.008343769999999859e+04
-3.008836630000000150e+04
-3.008511839999999938e+04
-3.008318730000000141e+04
-3.008207229999999981e+04
-3.008760220000000118e+04
-3.008772139999999854e+04
-3.008373340000000098e+04
-3.008806859999999870e+04
-3.008552400000000125e+04
-3.008603069999999934e+04
-3.008545430000000124e+04
-3.008300600000000122e+04
-3.008604899999999907e+04
-3.008686430000000109e+04
-3.008228280000000086e+04
-3.008621399999999994e+04
-3.008644900000000052e+04
-3.008257819999999992e+04
-3.008593799999999828e+04
-3.008441349999999875e+04
-3.008284509999999864e+04
-3.008687410000000091e+04
-3.008664640000000145e+04
-3.008839600000000064e+04
-3.008224569999999949e+04
-3.008446570000000065e+04
-3.008368049999999857e+04
-3.008585629999999946e+04
-3.008519129999999859e+04
-3.008505909999999858e+04
-3.008346930000000066e+04
-3.008556959999999890e+04
-3.008678069999999934e+04
-3.008624090000000069e+04
-3.008707140000000072e+04
-3.008459890000000087e+04
-3.008707949999999983e+04
-3.008356190000000061e+04
-3.008542970000000059e+04
-3.008206869999999981e+04
-3.008357960000000094e+04
-3.008003930000000037e+04
-3.008586620000000039e+04
-3.008280949999999939e+04
-3.008762810000000172e+04
-3.008674439999999959e+04
-3.008519729999999981e+04
-3.008780510000000140e+04
-3.008531899999999951e+04
-3.008454309999999896e+04
-3.008709479999999894e+04
-3.008580610000000161e+04
-3.008413750000000073e+04
-3.008445149999999921e+04
-3.008543379999999888e+04
-3.008731739999999991e+04
-3.008467090000000098e+04
-3.008696940000000177e+04
-3.008364909999999873e+04
-3.008281920000000173e+04
-3.008505930000000080e+04
-3.008601399999999921e+04
-3.008601610000000073e+04
-3.008651970000000074e+04
-3.008583829999999944e+04
-3.008906729999999880e+04
-3.008304630000000179e+04
-3.008578629999999976e+04
-3.008670390000000043e+04
-3.008674179999999978e+04
-3.008410670000000027e+04
-3.008288929999999891e+04
-3.008784300000000076e+04
-3.008599629999999888e+04
-3.008719210000000021e+04
-3.008808269999999902e+04
-3.008618720000000030e+04
-3.008111590000000069e+04
-3.008685859999999957e+04
-3.008949169999999867e+04
-3.008267510000000038e+04
-3.008619289999999819e+04
-3.008491719999999987e+04
-3.008555259999999907e+04
-3.008516389999999956e+04
-3.008307059999999910e+04
-3.008845019999999931e+04
-3.008800470000000132e+04
-3.008409860000000117e+04
-3.008295439999999871e+04
-3.008746359999999913e+04
-3.008546940000000177e+04
-3.008585280000000057e+04
-3.008379590000000098e+04
-3.008485429999999906e+04
-3.008539839999999822e+04
-3.008334490000000005e+04
-3.008733380000000034e+04
-3.008688439999999900e+04
-3.008517299999999886e+04
-3.008096099999999933e+04
-3.008319239999999991e+04
-3.008473660000000018e+04
-3.008405960000000050e+04
-3.008349030000000130e+04
-3.008739709999999832e+04
-3.008566010000000097e+04
-3.008601540000000023e+04
-3.008363450000000012e+04
-3.008283949999999822e+04
-3.008805270000000019e+04
-3.008563509999999951e+04
-3.008266059999999925e+04
-3.008587159999999858e+04
-3.008668089999999938e+04
-3.008254279999999926e+04
-3.008785269999999946e+04
-3.008648730000000069e+04
-3.008425809999999910e+04
-3.008554910000000018e+04
-3.008671340000000055e+04
-3.008607819999999992e+04
-3.008504910000000018e+04
-3.008860789999999906e+04
-3.008915429999999833e+04
-3.008825800000000163e+04
-3.008950040000000081e+04
-3.008566809999999896e+04
-3.008540769999999975e+04
-3.008441779999999926e+04
-3.008484500000000116e+04
-3.008494190000000162e+04
-3.008524499999999898e+04
-3.008631539999999950e+04
-3.008348329999999987e+04
-3.008182930000000124e+04
-3.008301269999999931e+04
-3.008551410000000033e+04
-3.008230529999999999e+04
-3.008666719999999987e+04
-3.008255809999999838e+04
-3.008367699999999968e+04
-3.008422200000000157e+04
-3.008900920000000042e+04
-3.008586170000000129e+04
-3.008715020000000004e+04
-3.008663230000000112e+04
-3.008430809999999838e+04
-3.008713420000000042e+04
-3.008416790000000037e+04
-3.008483599999999933e+04
-3.008622000000000116e+04
-3.008269789999999921e+04
-3.008472060000000056e+04
-3.008793560000000070e+04
-3.008318279999999868e+04
-3.008924639999999999e+04
-3.008498660000000018e+04
-3.008653529999999955e+04
-3.008697810000000027e+04
-3.008704270000000179e+04
-3.008918270000000120e+04
-3.008970360000000073e+04
-3.008581239999999889e+04
-3.008705219999999827e+04
-3.008443879999999990e+04
-3.008741939999999886e+04
-3.008952790000000095e+04
-3.007969870000000083e+04
-3.008210109999999986e+04
-3.008543820000000051e+04
-3.008288980000000083e+04
-3.008139679999999862e+04
-3.008238669999999911e+04
-3.008640859999999884e+04
-3.008175999999999840e+04
-3.008727890000000116e+04
-3.008515650000000096e+04
-3.008599429999999847e+04
-3.008700720000000001e+04
-3.008498389999999927e+04
-3.008804920000000129e+04
-3.008380310000000100e+04
-3.008801239999999962e+04
-3.008370019999999931e+04
-3.008447230000000127e+04
-3.008457489999999962e+04
-3.008354680000000008e+04
-3.008523300000000017e+04
-3.008854360000000088e+04
-3.008794989999999962e+04
-3.008634570000000167e+04
-3.008575649999999951e+04
-3.008235889999999927e+04
-3.008551120000000083e+04
-3.008547959999999875e+04
-3.007914159999999902e+04
-3.008573909999999887e+04
-3.008730770000000120e+04
-3.008349039999999877e+04
-3.008563109999999870e+04
-3.008124729999999909e+04
-3.008495850000000064e+04
-3.008486019999999917e+04
-3.008399850000000151e+04
-3.008538910000000033e+04
-3.008478499999999985e+04
-3.008366579999999885e+04
-3.008717499999999927e+04
-3.008425639999999839e+04
-3.008656940000000031e+04
-3.008448170000000027e+04
-3.008590789999999834e+04
-3.008711709999999948e+04
-3.008867220000000088e+04
-3.008377449999999953e+04
-3.008935080000000016e+04
-3.008320330000000104e+04
-3.008661100000000079e+04
-3.008414549999999872e+04
-3.008437459999999919e+04
-3.008843260000000009e+04
-3.008547889999999825e+04
-3.008606699999999910e+04
-3.008499959999999919e+04