-5.864251613184005407e+01 3.770187005952003734e+00 -1.608642146304001486e+00 3.770187005952003734e+00 -2.955417377587203021e+01 -1.810212190617601635e+01 -1.608642146304001486e+00 -1.810212190617601635e+01 -3.182455775232002892e+01
-1.912520960409601756e+01 3.049672052736002836e+00 -1.091438663270401044e+01 3.049672052736002836e+00 -5.609132723404805176e+01 -3.896440381440003264e+00 -1.091438663270401044e+01 -3.896440381440003264e+00 -2.613444872601602142e+01
-4.065576368947203889e+01 6.393209720832006226e+00 -9.044530606080007473e+00 6.393209720832006226e+00 -4.646994930892804376e+01 2.777574260736002554e+00 -9.044530606080007473e+00 2.777574260736002554e+00 -5.130893644185605496e+01
-6.290900951040006461e+00 1.396405868544001194e+01 4.353564672000004299e-02 1.396623546777601277e+01 -3.222290891980802741e+01 1.140633944064001071e+01 4.353564672000004299e-02 1.140633944064001071e+01 -1.415996909568001350e+01
-1.640858524876801638e+01 5.161150918656004727e+00 -8.870388019200007079e+00 5.161150918656004727e+00 -9.031469912064007843e+00 -1.330449363763201376e+01 -8.870388019200007079e+00 -1.330449363763201376e+01 -2.166333780787202201e+01
-3.759738450739203586e+01 -4.310029025280003867e-01 3.400134008832003119e+00 -4.310029025280003867e-01 -4.424310097920003670e+01 5.470254010368004849e+00 3.400134008832003119e+00 5.470254010368004849e+00 -5.364027032371205195e+01
-4.912997732352004476e+01 -6.552114831360006386e-01 -1.399671042048001413e+00 -6.552114831360006386e-01 -5.331810653798404331e+01 1.904684544000001756e+00 -1.399671042048001413e+00 1.904684544000001756e+00 -6.669661077504006386e+00
-2.252752039526402328e+01 4.688789151744004791e+00 -1.791491862528001633e+00 4.690965934080003841e+00 -3.213583762636802987e+01 5.548618174464005293e+00 -1.791491862528001633e+00 5.548618174464005293e+00 -4.504633366118404325e+01
-5.677483688755205549e+01 1.550957414400001433e+01 6.497695272960005930e+00 1.550957414400001433e+01 -8.256317722214407695e+01 -2.207692645171201917e+01 6.497695272960005930e+00 -2.207692645171201917e+01 -6.698176926105605844e+01
-1.923622550323201708e+01 2.202033011097601900e+01 7.409767071744006728e+00 2.202033011097601900e+01 -6.483546187776005354e+01 -3.876849340416003820e+00 7.409767071744006728e+00 -3.876849340416003820e+00 -2.946057213542402664e+01
-2.722501667635202693e+01 8.376258428928007760e+00 -1.136062701158400934e+01 8.376258428928007760e+00 -3.096037516492802766e+01 1.120825224806401010e+01 -1.136062701158400934e+01 1.120825224806401010e+01 -2.300641250918402037e+01
-1.121478259507201081e+01 3.243405680640003008e-01 -2.720977920000002381e+00 3.243405680640003008e-01 -1.165231584460801173e+01 -6.549938049024006226e+00 -2.720977920000002381e+00 -6.549938049024006226e+00 -2.881189099929602548e+01
-1.556399370240001545e+01 -1.051821224755201101e+01 1.177639243776001265e+00 -1.051821224755201101e+01 -2.577092607590402551e+01 6.530347008000006448e-02 1.177639243776001265e+00 6.530347008000006448e-02 -2.856809137766402884e+01
-3.572752848076803645e+01 -1.101887218483200925e+01 5.246045429760004097e+00 -1.101887218483200925e+01 -3.092119308288003054e+01 -8.918277230592007498e+00 5.246045429760004097e+00 -8.918277230592007498e+00 -5.918453493350406092e+01
-3.882944330956803469e+01 -5.498552180736004935e+00 1.432975811788801401e+01 -5.498552180736004935e+00 -3.584725150924803216e+01 1.208984909414401088e+01 1.432975811788801401e+01 1.208984909414401088e+01 -2.134552758681602214e+01
-3.333959825817603218e+01 -8.929161142272008078e+00 1.758840127488001670e+00 -8.929161142272008078e+00 -2.018747938406401587e+01 -5.348354199552004751e+00 1.758840127488001670e+00 -5.348354199552004751e+00 -1.421656543641601367e+01
-2.489150601216002556e+01 1.847217490329601830e+01 2.514183598080002469e+00 1.847217490329601830e+01 -3.012013718323202838e+01 3.086677352448002676e+00 2.514183598080002469e+00 3.086677352448002676e+00 -2.697250992537602343e+01
-1.356570751795201168e+01 1.389222486835201309e+01 -3.097561264128002811e+00 1.389222486835201309e+01 -2.728814336409602603e+01 1.347428265984001250e+01 -3.097561264128002811e+00 1.347428265984001250e+01 -3.705318892339203529e+01
2.479355080704002567e+00 -1.150211786342400977e+01 -6.029687070720004982e+00 -1.150211786342400977e+01 -3.251024418816002992e+01 -2.775397478400002615e+00 -6.029687070720004982e+00 -2.775397478400002615e+00 -3.545543068876803261e+01
-6.171177922560005413e+00 -8.134635589632006614e+00 -7.242154831872007037e+00 -8.134635589632006614e+00 -1.089261880934400928e+01 -2.836347383808002220e+00 -7.242154831872007037e+00 -2.836347383808002220e+00 -3.583636759756802803e+01
-4.836157315891204433e+01 -6.859041140736006348e+00 -1.301280480460801137e+01 -6.861217923072006286e+00 -7.099793267097606986e+01 5.877312307200005526e-02 -1.301280480460801137e+01 6.094990540800005602e-02 -2.709005617152002543e+01
-2.929295989555202695e+01 9.847763288064010467e+00 -1.464539155660801306e+01 9.847763288064010467e+00 -1.978695143424001879e+00 -9.662736789504009494e+00 -1.464539155660801306e+01 -9.662736789504009494e+00 -1.250561452032001242e+01
-3.613458677760003468e+01 -1.626056404992001658e+00 -7.333579689984007111e+00 -1.626056404992001658e+00 -3.630655258214403602e+01 -1.436676341760001252e+00 -7.333579689984007111e+00 -1.434499559424001314e+00 -3.205529667993602772e+01
-2.516578058649602312e+01 -1.914915420979201599e+01 2.093411572531202225e+01 -1.914915420979201599e+01 -6.807233721139206750e+01 1.073153691648001029e+01 2.093411572531202225e+01 1.073153691648001029e+01 -5.296329101721604360e+01
-1.930805932032001593e+01 3.918208204800003536e+00 -8.160756977664007650e+00 3.918208204800003536e+00 -5.092364596838405078e+01 -8.667947261952008375e+00 -8.160756977664007650e+00 -8.665770479616009325e+00 -3.265391182233603473e+01
-3.413194702848002748e+01 -4.860754956288005246e+00 1.961716241203201605e+01 -4.860754956288005246e+00 -1.824361275801601678e+01 6.628302213120005781e+00 1.961716241203201605e+01 6.628302213120005781e+00 1.436676341760001252e+00
-2.942574361804802763e+01 7.139846062080006384e+00 1.328272581427201260e+01 7.139846062080006384e+00 -2.499816834662402343e+01 -1.066623344640000859e+00 1.328272581427201260e+01 -1.066623344640000859e+00 -1.592098600550401599e+01
-3.092336986521602782e+01 1.267540354252801116e+01 3.937799245824003869e+00 1.267540354252801116e+01 -1.965852127641602110e+01 1.062269779968000982e+00 3.937799245824003869e+00 1.062269779968000982e+00 -3.332218399948803267e+01
-6.155940446208005312e+01 -6.408447197184005795e+00 2.783669251276802825e+01 -6.410623979520006621e+00 -5.315267108044804445e+01 -1.827844127539201580e+01 2.783669251276802825e+01 -1.827626449305601852e+01 -7.140063740313605933e+01
-3.594302993203203300e+01 2.353101705216002149e+00 -6.190768963584005746e+00 2.353101705216002149e+00 -2.937132405964802828e+01 7.455479500800007209e+00 -6.192945745920005685e+00 7.455479500800007209e+00 -1.789097401958401790e+01
-3.593649958502403052e+01 1.186999407820801267e+01 -1.086214385664000970e+00 1.186999407820801267e+01 -1.970858727014401879e+01 -6.748025241600007218e-02 -1.086214385664000970e+00 -6.748025241600007218e-02 -5.191190514892804941e+01
-4.280424785510404462e+01 4.018340192256003363e+00 -9.926127452160009579e-01 4.018340192256003363e+00 -2.795641554124802752e+01 -9.751984865280008963e-01 -9.926127452160009579e-01 -9.751984865280008963e-01 -5.493545581363204633e+01
-4.210332394291204139e+01 -5.640043032576005366e+00 -1.154565351014401031e+01 -5.640043032576005366e+00 -4.960669265510404813e+01 -4.743208710144004137e+00 -1.154565351014401031e+01 -4.743208710144004137e+00 -4.409072621568003569e+01
-2.306083206758401971e+01 6.321375903744005598e+00 1.096880619110400978e+01 6.321375903744005598e+00 -4.386216407040003595e+00 -1.787138297856001756e+00 1.096662940876801073e+01 -1.787138297856001756e+00 -2.843748443750402544e+01
-4.549475082240003587e+01 -1.172632644403201141e+01 1.826102701670401984e+01 -1.172632644403201141e+01 -2.623022714880002582e+01 4.819396091904003754e+00 1.826102701670401984e+01 4.819396091904003754e+00 -2.139124001587202173e+01
-3.062297390284803100e+01 1.022216984985600874e+01 -8.659240132608006846e+00 1.022216984985600874e+01 -2.494157200588802326e+01 -2.205080506368001902e+00 -8.659240132608006846e+00 -2.205080506368001902e+00 -3.865094715801603797e+01
-6.109357304217606099e+01 -8.419794075648008302e+00 -4.801981833216004247e+00 -8.419794075648008302e+00 -3.106486071705603180e+01 -5.838130225152005082e+00 -4.801981833216004247e+00 -5.838130225152005082e+00 -4.065141012480003724e+01
-3.017020317696002962e+01 6.347497291776006634e+00 -7.253038743552006729e+00 6.349674074112005684e+00 -3.457383384268803184e+01 1.350475761254401341e+01 -7.253038743552006729e+00 1.350475761254401341e+01 -4.544903839334404694e+01
-3.858129012326403995e+01 9.645322530816009987e+00 7.122431803392006877e+00 9.645322530816009987e+00 -3.426037718630403361e+01 -2.762336784384002542e+00 7.122431803392006877e+00 -2.762336784384002542e+00 -4.531843145318404709e+01
-3.816334791475203048e+01 -6.293077733376005511e+00 1.983048708096001889e+01 -6.295254515712006338e+00 -3.630872936448003685e+01 -3.513326690304003463e+00 1.983048708096001889e+01 -3.513326690304003463e+00 -4.359659662540803993e+01
-2.837218096742402906e+01 -3.798485176320003376e+01 -7.997498302464007836e+00 -3.798485176320003376e+01 -7.685565393715206994e+01 -5.742351802368006020e+00 -7.997498302464007836e+00 -5.742351802368006020e+00 -6.202958944665606111e+01
-2.200944619929602197e+01 -1.904031509299201730e+01 1.739249086464001559e+00 -1.904031509299201730e+01 -3.504619560960003377e-01 3.047495270400002801e-02 1.739249086464001559e+00 3.047495270400002801e-02 -2.062283585126401775e+01
-5.148525581107204374e+01 1.161095698022401201e+01 1.051821224755201101e+01 1.161095698022401201e+01 -4.205108116684803576e+01 -1.945608051916801884e+01 1.051821224755201101e+01 -1.945608051916801884e+01 -6.556468396032006751e+01
-2.203339080499202396e+01 -1.356788430028801251e+01 -6.179885051904006055e+00 -1.356788430028801251e+01 -5.979621076992005513e+00 7.610031046656007270e+00 -6.179885051904006055e+00 7.610031046656007270e+00 -3.316327888896002918e+01
-4.747997631283205067e+01 -2.644572860006402593e+01 3.269744746905602995e+01 -2.644572860006402593e+01 -3.056855434444802810e+01 -6.094990540800005602e-02 3.269744746905602995e+01 -6.312668774400005678e-02 -6.559951247769606653e+01
-2.140647749222402041e+01 -2.198550159360002088e+00 -3.809804444467203410e+01 -2.198550159360002088e+00 -5.242344899788805179e+01 8.019266125824007219e+00 -3.809804444467203410e+01 8.019266125824007219e+00 -5.672912445849605234e+01
-2.636083408896002211e+01 1.118866120704001155e+00 1.209420265881601253e+01 1.118866120704001155e+00 -6.713196724224006573e+01 6.251718868992005795e+00 1.209420265881601253e+01 6.251718868992005795e+00 -4.673116318924804347e+01
-6.228209619763205751e+01 8.162933760000006700e+00 1.654354575360001689e-01 8.162933760000006700e+00 -4.019863939891203586e+01 5.594330603520005774e-01 1.654354575360001689e-01 5.594330603520005774e-01 -3.751684356096003370e+01
-4.396882640486404625e+01 -5.185095524352004936e+00 -1.287566751744001259e+01 -5.185095524352004936e+00 -4.066229403648003426e+01 -5.524673568768005083e+00 -1.287566751744001259e+01 -5.524673568768005083e+00 -5.052529480089604164e+01
-2.220753339187201902e+01 -3.976981327872003646e+00 6.336613380096006054e+00 -3.976981327872003646e+00 -2.191149099417602031e+01 -1.102975609651201161e+01 6.336613380096006054e+00 -1.102975609651201161e+01 -1.538549755084801340e+01
-4.448690060083204401e+01 -5.071902842880005036e-01 -1.706597351424001596e+00 -5.071902842880005036e-01 -4.976124420096004286e+01 3.273880633344002700e+00 -1.706597351424001596e+00 3.276057415680003082e+00 -3.172224898252802916e+01
-6.718638680064006508e+01 7.703632687104007282e+00 5.230807953408005417e+00 7.703632687104007282e+00 -3.409929529344002930e+01 -6.094990540800004908e-01 5.230807953408005417e+00 -6.094990540800004908e-01 -9.993607704576008999e+00
-2.229460468531202011e+01 1.872032808960001793e+00 1.183081199616001022e+01 1.874209591296001731e+00 -4.974818350694404501e+01 6.199476092928005500e+00 1.183081199616001022e+01 6.199476092928005500e+00 -2.690938323763202433e+01
-2.652409276416002371e+01 -1.223351672832001213e+01 8.147696283648008020e+00 -1.223351672832001213e+01 -3.705536570572803612e+01 1.055086398259200919e+01 8.147696283648008020e+00 1.055086398259200919e+01 -6.635485594828806200e+01
-3.919078917734403689e+01 -2.557719244800002567e+00 -7.764582592512007331e+00 -2.555542462464002185e+00 -4.090391687577603363e+01 -7.102840762368006544e+00 -7.764582592512007331e+00 -7.102840762368006544e+00 -6.523816660992006078e+00
-9.512538808320007533e+00 6.240834957312006104e+00 -1.082731533926401113e+01 6.240834957312006104e+00 -8.961812877312008041e+00 -6.240834957312006104e+00 -1.082731533926401113e+01 -6.240834957312006104e+00 -5.053400193024004494e+01
-3.112798740480003090e+01 5.463723663360005034e+00 -1.899677944627201853e+01 5.463723663360005034e+00 -4.888835448422404539e+01 1.628233187328001463e+01 -1.899677944627201853e+01 1.628233187328001463e+01 -5.560808155545605302e+01
-3.448240898457603265e+01 -1.253826625536001105e+00 1.468022007398401385e+01 -1.253826625536001105e+00 -3.754514173132803734e+01 -7.677511299072007134e+00 1.468022007398401385e+01 -7.677511299072007134e+00 -1.118866120704000977e+01
-5.389060029235205462e+01 -6.898223222784006126e+00 1.201801527705601025e+01 -6.898223222784006126e+00 -4.788268104499204014e+01 1.486960013721601470e+01 1.201801527705601025e+01 1.486960013721601470e+01 -4.794145416806404114e+01
-2.267771837644801991e+01 1.749044606976001859e+01 9.751984865280008963e-01 1.749044606976001859e+01 -3.199870033920002754e+01 -8.250005053440007785e+00 9.751984865280008963e-01 -8.250005053440007785e+00 -3.223814639616003319e+01
-2.633035913625602475e+01 -1.784961515520001596e-01 -3.698353188864003549e+00 -1.784961515520001596e-01 -2.266683446476802288e+01 1.138457161728001132e+01 -3.700529971200003043e+00 1.138457161728001132e+01 -2.381617553817602229e+01
-5.850755562700805257e+01 -1.593404669952001473e+00 1.874209591296001776e+01 -1.593404669952001473e+00 -6.303743966822405298e+01 1.390093199769601284e+01 1.874209591296001776e+01 1.390093199769601284e+01 -3.503748848025603024e+01
-3.427996822732803395e+01 2.377046310912002358e+00 9.157723287552007818e+00 2.377046310912002358e+00 -1.732065704755201807e+01 -1.982831029862402161e+01 9.157723287552007818e+00 -1.982831029862402161e+01 -2.159368077312002043e+01
-4.142852141875204097e+01 8.707129344000008597e-02 1.149558751641601084e+01 8.707129344000008597e-02 -3.382284393676803091e+01 2.429289086976002210e+00 1.149558751641601084e+01 2.429289086976002210e+00 -4.457397189427204154e+01
-4.040543372083203622e+01 1.231623445708801157e+01 -1.473463963238401320e+01 1.231623445708801157e+01 -3.093207699456003112e+01 -5.239515082752004282e+00 -1.473463963238401320e+01 -5.239515082752004282e+00 -4.442159713075204763e+01
-2.814797238681602565e+01 6.933051740160006027e+00 -1.240765931520001197e-01 6.933051740160006027e+00 -1.775165995008001829e+01 -1.980871925760001817e+00 -1.240765931520001197e-01 -1.980871925760001817e+00 -4.754527978291204704e+01
-3.379889933107202893e+01 2.066201793331202197e+01 -2.472824733696002308e+00 2.066201793331202197e+01 -4.254303397478403781e+01 -1.419262083072001301e+00 -2.472824733696002308e+00 -1.419262083072001301e+00 -3.163300090675203080e+01
-1.810865225318401528e+01 -8.082392813568008094e+00 4.386216407040003595e+00 -8.082392813568008094e+00 -4.567542375628804763e+01 -8.770256031744008141e+00 4.384039624704004545e+00 -8.770256031744008141e+00 -3.105833037004802932e+01
-3.050325087436802818e+01 -2.729685049344002135e+00 8.260888965120008365e+00 -2.729685049344002135e+00 -8.898686189568007165e+00 -8.358844170240008475e-01 8.260888965120008365e+00 -8.358844170240008475e-01 -6.963091336396807662e+01
-4.249296798105604012e+01 3.598221201408003278e+00 2.612138803200002579e-01 3.598221201408003278e+00 -3.618029920665603782e+01 8.467683287040006945e+00 2.612138803200002579e-01 8.467683287040006945e+00 -5.691850452172805319e+01
-2.237296884940802144e+01 6.319199121408006548e+00 4.788921139200004728e-01 6.319199121408006548e+00 -1.915568455680001847e+01 1.053127294156801064e+01 4.788921139200004728e-01 1.053127294156801064e+01 -2.869869831782402514e+01
-2.009605452595202024e+01 -4.451519877120004409e+00 3.230344986624003045e+00 -4.449343094784003583e+00 -2.952369882316802929e+01 -2.845054513152002684e+01 3.230344986624003045e+00 -2.845054513152002684e+01 -1.540508859187201374e+01
-2.940832935936002812e+00 7.758052245504006628e+00 9.105480511488009299e+00 7.758052245504006628e+00 -2.694421175500802690e+01 1.018298776780800985e+01 9.105480511488009299e+00 1.018298776780800985e+01 -1.126049502412801040e+01
-5.521626073497605347e+01 2.188972317081602270e+01 -1.131926814720000951e-01 2.188972317081602270e+01 -1.665020808806401575e+01 -4.074936532992003535e+00 -1.131926814720000951e-01 -4.074936532992003535e+00 -3.086024317747202872e+01
-1.011115395072000922e+01 9.775929470976009839e+00 7.248685178880006852e+00 9.775929470976009839e+00 -3.371835838464003388e+01 1.675034007552001469e+01 7.248685178880006852e+00 1.675034007552001469e+01 -2.030937919488001953e+01
-2.262547560038402139e+01 1.435805628825601410e+01 1.976518361088001718e+00 1.435805628825601410e+01 -5.392760559206405446e+01 -4.904290603008004013e+00 1.976518361088001718e+00 -4.904290603008004013e+00 -5.751929644646405393e+01
-5.557325303808005934e+00 9.521245937664009062e+00 8.641825873920007339e+00 9.521245937664009062e+00 -1.974776935219201945e+01 2.165898424320002125e+00 8.641825873920007339e+00 2.165898424320002125e+00 -1.723140897177601616e+01
-3.218590362009603467e+01 6.356204421120006387e-01 -2.199420872294401974e+01 6.356204421120006387e-01 -3.902317693747203009e+01 1.213556152320001225e+01 -2.199638550528002057e+01 1.213556152320001225e+01 -4.126308596121604211e+01
-4.381862842368003719e+00 1.048338373017601022e+01 -1.393140695040001376e+00 1.048556051251200927e+01 -4.363577870745604059e+01 6.617418301440006756e-01 -1.393140695040001376e+00 6.595650478080006263e-01 -2.896861932748802815e+01
-4.007456280576003849e+01 -1.248166991462401221e+01 -1.527665843404801471e+01 -1.248166991462401221e+01 -5.256929341440005032e+01 -1.029400366694400937e+01 -1.527665843404801471e+01 -1.029400366694400937e+01 -7.391482100121606891e+01
-1.732283382988801534e+01 -7.387999248384006457e+00 2.407521263616002472e+01 -7.387999248384006457e+00 -3.754296494899202941e+01 -5.222100824064004776e+00 2.407521263616002472e+01 -5.222100824064004776e+00 -6.648328610611206102e+01
-6.864265418342405667e+01 -7.059305115648006002e+00 -1.401412467916801319e+01 -7.059305115648006002e+00 -5.310478186905605469e+01 -2.725331484672002702e+00 -1.401412467916801319e+01 -2.725331484672002702e+00 -5.188360697856004577e+01
-3.187244696371202934e+01 -3.241228898304003181e+00 2.496769339392002518e+00 -3.241228898304003181e+00 -2.394025213132802321e+01 2.301947320320002177e+01 2.496769339392002518e+00 2.301947320320002177e+01 -1.133232884121600925e+01
-5.755412496384006005e+01 -2.855067711897602578e+01 7.723223728128006726e+00 -2.855067711897602578e+01 -3.588643359129603283e+01 2.024407572480001749e-01 7.723223728128006726e+00 2.046175395840001687e-01 -2.160891824947201911e+01
-3.288029718528002832e+01 -1.063140492902401135e+01 -1.648694941286401416e+01 -1.063140492902401135e+01 -3.050107409203202735e+01 1.095356871475201110e+01 -1.648694941286401416e+01 1.095356871475201110e+01 -2.094282285465601845e+01
-7.640505999360007294e+00 -2.574262790553602187e+01 4.216427384832003966e+00 -2.574262790553602187e+01 -2.803913327001602696e+01 -6.965703475200006878e-01 4.216427384832003966e+00 -6.987471298560006261e-01 -2.064242689228801808e+01
-3.486334589337602807e+01 -3.942152810496003301e+00 -1.533325477478401488e+01 -3.942152810496003301e+00 -7.017946251264006285e+00 5.968737165312005821e+00 -1.533325477478401488e+01 5.968737165312005821e+00 -1.386828026265601288e+01
-7.213856661504006951e+00 -9.164253634560008521e+00 -7.044067639296007322e+00 -9.164253634560008521e+00 -2.629117705420802409e+01 9.098950164480008596e-01 -7.044067639296007322e+00 9.098950164480008596e-01 -2.797818336460802513e+01
-3.199216999219202862e+01 -2.357455269888002025e+00 -2.738392178688002776e+00 -2.355278487552002531e+00 -5.261282906112005264e+01 -5.365768458240005145e+00 -2.738392178688002776e+00 -5.365768458240005145e+00 -4.310899738214403953e+01
-2.376175597977602294e+01 5.938262212608005797e+00 9.479887073280009346e+00 5.938262212608005797e+00 -3.231651056025602742e+01 -6.617418301440006978e+00 9.479887073280009346e+00 -6.617418301440006978e+00 -3.571011422208002983e+01
-5.631553581465605873e+01 -2.109302083584001952e+00 -4.366625366016004151e+00 -2.109302083584001952e+00 -3.129559964467202704e+01 1.665238487040001658e+01 -4.366625366016004151e+00 1.665238487040001658e+01 -3.779329491763203208e+01
-4.153300697088003801e+01 -6.094990540800005602e-02 4.997892243456004024e+00 -6.094990540800005602e-02 -3.015496570060803094e+01 1.624314979123201397e+01 4.997892243456004024e+00 1.624314979123201397e+01 -5.207516382412804745e+01
-3.822212103782403858e+01 -3.156334387200002700e-01 4.680082022400004149e+00 -3.156334387200002700e-01 -2.435601755750402120e+01 -5.677048332288005206e+00 4.680082022400004149e+00 -5.674871549952005267e+00 -3.375971724902403537e+01
-2.462811534950402148e+01 5.855544483840005032e-01 8.480743981056008352e+00 5.855544483840005032e-01 -3.033781541683202931e+01 -4.882522779648004629e+00 8.478567198720007525e+00 -4.882522779648004629e+00 -5.515966439424005330e+01
-3.319810740633603530e+01 8.221706883072007699e+00 -1.167190688563201029e+01 8.221706883072007699e+00 -2.284315383398402233e+01 2.217923522150402249e+01 -1.167190688563201029e+01 2.217923522150402249e+01 -3.043794740428802825e+01
-3.389685453619203059e+01 1.937336279040001719e+00 -7.697102340096007467e+00 1.937336279040001719e+00 -5.574957240729604990e+01 5.200333000704005393e+00 -7.697102340096007467e+00 5.200333000704005393e+00 -5.459587776921605240e+01
-3.156116708966402840e+01 -7.505545494528007566e+00 -1.787138297856001756e+00 -7.505545494528007566e+00 -2.487844531814402416e+01 -9.320981962752009409e+00 -1.787138297856001756e+00 -9.320981962752009409e+00 -7.925664485376008095e+00
-6.413889153024005907e+01 4.294791548928003522e+00 1.091874019737600854e+01 4.294791548928003522e+00 -5.470907045068804564e+01 1.040937313075200876e+01 1.091874019737600854e+01 1.040937313075200876e+01 -3.630437579980802809e+01
-4.215774350131203363e+01 3.069263093760002725e+00 -4.059699056640003967e+00 3.069263093760002725e+00 -3.975675258470403151e+01 -7.808118239232006985e+00 -4.059699056640003967e+00 -7.808118239232006985e+00 -5.616098426880005157e+00
-4.439547574272004482e+01 -2.261241490636801998e+01 2.020054007808001817e+00 -2.261241490636801998e+01 -5.185313202585604841e+01 2.008517061427201966e+01 2.020054007808001817e+00 2.008517061427201966e+01 -6.532959146803206352e+01
-3.775846640025603307e+01 4.144593567744004226e+00 -1.111029704294401022e+01 4.144593567744004226e+00 -5.878400698368005806e+01 -6.092813758464004970e+00 -1.111029704294401022e+01 -6.092813758464004970e+00 -5.153749858713604937e+01
-4.694013429350404465e+01 -1.746432468172801933e+01 -7.035360509952006680e+00 -1.746432468172801933e+01 -2.899909428019202906e+01 3.199870033920003021e+00 -7.035360509952006680e+00 3.199870033920003021e+00 -1.733807130624001758e+01
-3.430608961536002965e+01 7.272629784576006173e+00 -6.952642781184006360e+00 7.272629784576006173e+00 -4.264534274457604113e+01 2.416228392960002580e+00 -6.952642781184006360e+00 2.416228392960002580e+00 -5.373822552883205361e+01
-4.117819145011203830e+01 -9.349280133120009495e+00 -5.855544483840005476e+00 -9.349280133120009495e+00 -2.136729541017601974e+01 -6.867748270080006101e+00 -5.855544483840005476e+00 -6.867748270080006101e+00 -1.475423067340801353e+01
-5.185095524352004936e+00 -1.156306776883200982e+01 -7.401059942400006086e+00 -1.156306776883200982e+01 -1.553787231436801441e+01 6.282193821696005820e+00 -7.401059942400006086e+00 6.282193821696005820e+00 -3.978287397273604142e+01
-6.043836155904006091e+01 -2.649144102912002641e+00 -1.101451862016001204e+00 -2.649144102912002641e+00 -2.858332885401602752e+01 -2.592547762176002468e+00 -1.103628644352000920e+00 -2.592547762176002468e+00 -4.874686363238404851e+01
-3.102132507033602948e+01 -1.866590853120001725e+01 1.177421565542401005e+01 -1.866590853120001725e+01 -5.409086426726405250e+01 -1.515693540556801366e+01 1.177421565542401005e+01 -1.515693540556801366e+01 -6.544496093184005758e+01
-3.314151106560003512e+01 9.597433319424007792e+00 6.576059437056005486e+00 9.597433319424007792e+00 -7.084120434278405298e+01 -7.233447702528006396e+00 6.576059437056005486e+00 -7.233447702528006396e+00 -1.509163193548801374e+01
-3.323511270604803514e+01 -2.877706248192002825e+00 8.278303223808007871e+00 -2.877706248192002825e+00 -4.215121315430403826e+01 -1.136280379392001105e+00 8.278303223808007871e+00 -1.136280379392001105e+00 -4.164837643468803918e+01
-4.956751057305604746e+01 1.293008707584001327e+00 6.852510793728006533e+00 1.293008707584001327e+00 -3.207271093862403433e+01 -9.085889470464007189e+00 6.852510793728006533e+00 -9.085889470464007189e+00 -5.946533985484805385e+01
-9.791166947328010295e+00 -2.140647749222402041e+01 8.276126441472007045e+00 -2.140647749222402041e+01 -1.472810928537601427e+01 1.678081502822401561e+01 8.276126441472007045e+00 1.678081502822401561e+01 3.809369088000003623e-01
-2.994599459635202976e+01 -4.255609466880004632e+00 -3.833313693696003721e+00 -4.255609466880004632e+00 -3.348544267468803071e+01 7.814648586240006800e+00 -3.835490476032003215e+00 7.814648586240006800e+00 1.462797729792001178e+00
2.505476468736002271e+00 -1.937336279040001941e+01 3.565569466368003315e+00 -1.937118600806401858e+01 -2.915582260838402817e+01 5.905610477568005834e+00 3.565569466368003315e+00 5.907787259904004884e+00 -2.941050614169602895e+01
-2.698339383705602756e+01 -5.039251107840004629e+00 -1.015468959744000976e+01 -5.039251107840004629e+00 -3.311756645990403314e+01 -8.197762277376007489e+00 -1.015686637977600881e+01 -8.197762277376007489e+00 -5.584970439475205239e+01
-4.106717555097603878e+01 -1.572942915993601432e+01 9.828172247040008358e+00 -1.572942915993601432e+01 -4.579514678476804335e+01 -4.671374893056004396e+00 9.828172247040008358e+00 -4.671374893056004396e+00 -2.815014916915202647e+01
-5.054706262425604280e+01 -8.818145243136008560e+00 -8.008382214144006639e+00 -8.818145243136008560e+00 -3.582330690355203018e+01 4.745385492480004852e-01 -8.008382214144006639e+00 4.745385492480004852e-01 -5.898644774092805676e+01
-8.981403918336008374e+00 3.511149907968003525e+00 8.365374517248007180e+00 3.511149907968003525e+00 -2.303471067955202045e+01 3.143273693184002848e+00 8.365374517248007180e+00 3.145450475520003231e+00 -2.818280090419202821e+01
-2.105819231846401962e+01 -4.066229403648003782e+00 -8.996641394688008830e+00 -4.066229403648003782e+00 -1.728800531251201633e+01 -5.289581076480004640e+00 -8.996641394688008830e+00 -5.289581076480004640e+00 -2.569473869414402500e+01
-5.042951637811204790e+01 -2.783669251276802825e+01 -1.754051206348801628e+01 -2.783451573043202387e+01 -1.817177894092801438e+01 5.899080130560004909e-01 -1.753833528115201545e+01 5.899080130560004909e-01 4.653960634368004889e+00
-1.217256682291201031e+01 6.018803159040006179e+00 1.110158991360001179e+00 6.018803159040006179e+00 -2.341564758835201943e+01 -1.044637843046401038e+01 1.110158991360001179e+00 -1.044637843046401038e+01 -4.252126615142403665e+01
-4.032924633907203571e+01 -1.960410171801601820e+01 -9.595256537088008741e+00 -1.960410171801601820e+01 -3.989824343654404259e+01 -4.170714955776003485e+00 -9.595256537088008741e+00 -4.170714955776003485e+00 -6.668790364569606766e+01
-4.674204710092804049e+01 9.547367325696010099e+00 1.071847622246401066e+01 9.547367325696010099e+00 -3.987212204851203978e+01 3.119329087488003083e+00 1.071847622246401066e+01 3.119329087488003083e+00 -1.439941515264001382e+01
-1.961280884736001928e+00 5.714053632000005933e+00 -1.552045805568001313e+00 5.714053632000005933e+00 -1.443642045235201365e+01 -2.197244089958402213e+01 -1.552045805568001313e+00 -2.197244089958402213e+01 -3.194210399846402737e+01
-1.685264884531201446e+01 -5.047958237184004382e+00 8.563461709824007784e+00 -5.047958237184004382e+00 -4.789574173900804510e+01 1.595581452288001634e+00 8.563461709824007784e+00 1.595581452288001634e+00 -2.625634853683202508e+01
-3.623471876505603717e+01 -8.345783476224008623e+00 1.091438663270401044e+01 -8.345783476224008623e+00 -3.005048014848002680e+01 -5.459370098688004269e+00 1.091438663270401044e+01 -5.457193316352005219e+00 -5.300029631692805054e+01
-2.721195598233602553e+01 -9.312274833408007879e+00 2.337864228864002580e+00 -9.312274833408007879e+00 -4.192700457369603839e+01 1.368760732876801356e+01 2.337864228864002580e+00 1.368760732876801356e+01 -3.212495371468803285e+01
-4.568630766796804465e+01 -6.245188521984005980e+00 4.440635965440004052e-01 -6.245188521984005980e+00 -3.136743346176002589e+01 8.023619690496007095e+00 4.440635965440004052e-01 8.023619690496007095e+00 -5.194020331929604595e+01
-5.682490288128005318e+01 -1.425792430080001338e+00 3.613458677760003290e+00 -1.425792430080001338e+00 -5.739957341798405110e+01 2.246439370752002063e+00 3.613458677760003290e+00 2.246439370752002063e+00 -8.193191034470407885e+01
-5.782839953817605050e+01 1.406854423756801253e+01 8.384965558272007513e+00 1.406854423756801253e+01 -4.770853845811204508e+01 -1.314994209177601370e+01 8.384965558272007513e+00 -1.314994209177601370e+01 -8.511654290227207298e+01