-1.013778058849999979e+03
-1.019004487440000048e+03
-1.015646738320000054e+03
-1.020342282960000034e+03
-1.018526219930000025e+03
-1.019222837570000024e+03
-1.017202314470000033e+03
-1.020153839719999951e+03
-1.018501410830000054e+03
-1.017500453679999964e+03
-1.017028456689999985e+03
-1.013825965229999952e+03
-1.016025916270000039e+03
-1.018596721620000039e+03
-1.016823318210000025e+03
-1.014937551320000011e+03
-1.014764791009999954e+03
-1.018954899530000034e+03
-1.016598561900000050e+03
-1.015875246609999976e+03
-1.019619171390000020e+03
-1.014570995029999949e+03
-1.018063387580000040e+03
-1.017880471189999980e+03
-1.017927473899999995e+03
-1.015195969239999954e+03
-1.018171388650000040e+03
-1.020008004179999944e+03
-1.019150319760000002e+03
-1.020315330349999954e+03
-1.018751630510000041e+03
-1.017002309060000016e+03
-1.015200458499999968e+03
-1.018172253909999995e+03
-1.016128058949999968e+03
-1.013782077070000014e+03
-1.015404194709999956e+03
-1.016576749500000005e+03
-1.016201412710000000e+03
-1.018504742759999999e+03
-1.019933879329999968e+03
-1.016560154119999993e+03
-1.014629873350000025e+03
-1.017827557599999977e+03
-1.016723666920000028e+03
-1.018682627349999962e+03
-1.014707514370000013e+03
-1.014818245550000029e+03
-1.016581279399999971e+03
-1.016382606559999999e+03
-1.018522618950000037e+03
-1.015988781939999967e+03
-1.020651595929999985e+03
-1.019333142550000048e+03
-1.016720633030000045e+03
-1.015267691499999955e+03
-1.014894264969999995e+03
-1.017954878740000026e+03
-1.015212872210000000e+03
-1.018831413549999979e+03
-1.016339384320000022e+03
-1.015033269290000021e+03
-1.018230351659999997e+03
-1.012333973239999978e+03
-1.022048714450000034e+03
-1.016603810540000040e+03
-1.016610937199999967e+03
-1.017027649030000021e+03
-1.016793591389999960e+03
-1.017694627780000019e+03
-1.016165147260000026e+03
-1.017459987120000051e+03
-1.020105051150000008e+03
-1.014518208849999951e+03
-1.018851944140000001e+03
-1.016954708050000022e+03
-1.012749082670000007e+03
-1.018124042609999947e+03
-1.016804419660000008e+03
-1.018656331010000031e+03
-1.017880689200000006e+03
-1.019095482670000024e+03
-1.019382614780000040e+03
-1.019804898780000030e+03
-1.015088959400000022e+03
-1.019552415610000025e+03
-1.016575952110000003e+03
-1.018218940070000031e+03
-1.016705839849999961e+03
-1.015052493540000000e+03
-1.018915249669999980e+03
-1.018235831549999943e+03
-1.015909786619999977e+03
-1.017886201479999954e+03
-1.016426740060000043e+03
-1.018523756280000043e+03
-1.020847727009999971e+03
-1.016109561510000049e+03
-1.016186185740000042e+03
-1.019470852430000036e+03
-1.018301978640000016e+03
-1.016250072570000043e+03
-1.015707331930000009e+03
-1.020336462859999983e+03
-1.017488894680000044e+03
-1.012753305849999947e+03
-1.015800724609999975e+03
-1.019478335109999989e+03
-1.018866318050000018e+03
-1.015734927889999994e+03
-1.016545489320000001e+03
-1.017324705979999976e+03
-1.016262871040000050e+03
-1.018399888570000030e+03
-1.018684343919999947e+03
-1.020124966390000054e+03
-1.017641581269999961e+03
-1.018616548810000040e+03
-1.014539804239999967e+03
-1.019090155289999984e+03
-1.017135976550000009e+03
-1.015224777560000007e+03
-1.016619174580000049e+03
-1.016309490190000020e+03
-1.020356259900000055e+03
-1.021170757159999994e+03
-1.012424208939999971e+03
-1.018331325610000022e+03
-1.016456459890000019e+03
-1.018679208590000030e+03
-1.018457348489999958e+03
-1.019046406090000005e+03
-1.012931579879999958e+03
-1.015743400790000010e+03
-1.015991252570000029e+03
-1.017553962550000051e+03
-1.015210225059999971e+03
-1.018041403329999980e+03
-1.019109773929999960e+03
-1.016370192960000054e+03
-1.017206433439999955e+03
-1.019880342759999962e+03
-1.016613037889999987e+03
-1.016484972960000050e+03
-1.019244775849999996e+03
-1.014993109630000049e+03
-1.018813301639999963e+03
-1.017305566079999949e+03
-1.016947053549999964e+03
-1.018490156220000017e+03
-1.016837037710000004e+03
-1.013477758429999994e+03
-1.015783129690000010e+03
-1.017700200119999977e+03
-1.013163598940000043e+03
-1.017524968179999973e+03
-1.017831280760000027e+03
-1.020324211330000026e+03
-1.015076204329999996e+03
-1.016958583920000024e+03
-1.015753817359999971e+03
-1.020827185849999978e+03
-1.017978355719999968e+03
-1.014246182269999963e+03
-1.015479353619999983e+03
-1.011926011160000030e+03
-1.015807911470000022e+03
-1.019619617859999948e+03
-1.017700116640000033e+03
-1.016709301289999985e+03
-1.021226085089999970e+03
-1.017959621279999965e+03
-1.015759321630000045e+03
-1.018546861929999977e+03
-1.016324382880000030e+03
-1.018751010370000017e+03
-1.016854684359999965e+03
-1.015987038299999995e+03
-1.016150683210000011e+03
-1.018832414829999948e+03
-1.018800801320000005e+03
-1.015042898749999949e+03
-1.017923629610000035e+03
-1.018376803829999972e+03
-1.016062193040000011e+03
-1.017813901020000003e+03
-1.015851732849999962e+03
-1.019000823279999963e+03
-1.016122959260000016e+03
-1.016256733700000041e+03
-1.012913250329999983e+03
-1.015463547360000007e+03
-1.017694014809999999e+03
-1.017724592529999995e+03
-1.015591797619999966e+03
-1.018542687190000038e+03
-1.019191198220000047e+03
-1.018551504399999999e+03
-1.020861601690000043e+03
-1.015797594649999951e+03
-1.016031503680000014e+03
-1.017477969710000025e+03
-1.019431417300000021e+03
-1.020721292179999978e+03
-1.016416100609999944e+03
-1.018380127310000034e+03
-1.018693473649999987e+03
-1.019983418550000010e+03
-1.020303816040000015e+03
-1.017283650729999977e+03
-1.018855822890000013e+03
-1.020702887489999966e+03
-1.018263171700000044e+03
-1.011536774260000016e+03
-1.021814631899999995e+03
-1.016624018230000047e+03
-1.016438417110000046e+03
-1.012719342330000018e+03
-1.016420120890000021e+03
-1.012001699319999943e+03
-1.018005082119999997e+03
-1.018813012110000045e+03
-1.019964340900000025e+03
-1.017444108750000055e+03
-1.017796527139999966e+03
-1.017153554780000036e+03
-1.020158445529999995e+03
-1.018691788920000022e+03
-1.018977274230000035e+03
-1.019520557149999945e+03
-1.014795803060000026e+03
-1.019062914299999989e+03
-1.017728125869999985e+03
-1.013151761839999949e+03
-1.017697793489999981e+03
-1.017615324470000019e+03
-1.016670292180000047e+03
-1.017548301349999974e+03
-1.018038411829999973e+03
-1.019314399350000031e+03
-1.020187432729999955e+03
-1.017856843799999979e+03
-1.017088492810000048e+03
-1.016340789449999988e+03
-1.015048087290000012e+03
-1.016485368640000047e+03
-1.016313575010000022e+03
-1.019443709180000042e+03
-1.014785894119999966e+03
-1.015644783699999948e+03
-1.019318306730000018e+03
-1.016365459419999979e+03
-1.020074754839999969e+03
-1.018761790030000043e+03
-1.017848286619999953e+03
-1.016802974719999952e+03
-1.017702372060000016e+03
-1.019347787639999979e+03
-1.017338835330000052e+03
-1.014884836530000030e+03
-1.015138405779999971e+03
-1.018304817490000005e+03
-1.016473992889999977e+03
-1.013114953870000022e+03
-1.020353010420000032e+03
-1.019590147499999944e+03
-1.020010594940000033e+03
-1.019337637660000041e+03
-1.019047065520000046e+03
-1.019501944360000039e+03
-1.017621430880000048e+03
-1.014854261680000036e+03
-1.017802702419999946e+03
-1.019401128749999998e+03
-1.017199270329999990e+03
-1.015648569230000021e+03
-1.019347858820000056e+03
-1.019965749810000034e+03
-1.019331551569999988e+03
-1.019352726609999991e+03
-1.015224076579999974e+03
-1.016909925159999943e+03
-1.014992043530000046e+03
-1.016774179600000025e+03
-1.017899887440000043e+03
-1.018143426269999964e+03
-1.016896661910000034e+03
-1.018174309210000047e+03
-1.020090431269999954e+03
-1.021060871339999949e+03
-1.015160119529999974e+03
-1.018126832390000004e+03
-1.020729818239999986e+03
-1.014950957789999961e+03
-1.015675179240000034e+03
-1.016787454870000033e+03
-1.015999848749999956e+03
-1.019000966479999988e+03
-1.018140057179999985e+03
-1.015953907129999948e+03
-1.017045174719999977e+03
-1.017908301540000025e+03
-1.019347732319999977e+03
-1.020116872339999986e+03
-1.018914455269999962e+03
-1.015311016249999966e+03
-1.021195760579999956e+03
-1.017106262799999968e+03
-1.016791532480000001e+03
-1.018115999279999983e+03
-1.018510296929999981e+03
-1.016931226860000038e+03
-1.017811620589999961e+03
-1.018221033120000016e+03
-1.021454769710000051e+03
-1.015301796729999978e+03
-1.016765443870000013e+03
-1.018343996349999998e+03
-1.013847388290000026e+03
-1.020009593300000006e+03
-1.021357155290000037e+03
-1.017374661899999978e+03
-1.018182760440000038e+03
-1.022289799519999974e+03
-1.018698904849999963e+03
-1.018824326270000029e+03
-1.014224792409999964e+03
-1.019806004939999980e+03
-1.015850654640000016e+03
-1.018208922840000014e+03
-1.020394556309999984e+03
-1.015237216050000029e+03
-1.019606107299999962e+03
-1.015850939240000002e+03
-1.015515472840000029e+03
-1.018704708099999948e+03
-1.016814541719999966e+03
-1.010262176670000031e+03
-1.018980174209999973e+03
-1.012970779030000017e+03
-1.017360855199999946e+03
-1.019551429289999987e+03
-1.020060753859999977e+03
-1.018090344169999980e+03
-1.018316298009999969e+03
-1.018013242590000004e+03
-1.021625256970000009e+03
-1.014410816490000002e+03
-1.017834492230000023e+03
-1.018048045829999978e+03
-1.017906461039999954e+03
-1.016211930029999962e+03
-1.015929136070000027e+03
-1.016355432510000014e+03
-1.018608714749999990e+03
-1.016795888579999996e+03
-1.019134689930000036e+03
-1.018397748549999960e+03
-1.021142714920000003e+03
-1.016520624750000025e+03
-1.013313445050000041e+03
-1.013990350789999979e+03
-1.014855344919999993e+03
-1.016700552300000027e+03
-1.017116028170000050e+03
-1.019262542090000011e+03
-1.015675664050000023e+03
-1.017688371660000030e+03
-1.016142450820000022e+03
-1.016429717360000041e+03
-1.017819006250000029e+03
-1.017370242279999957e+03
-1.015709416789999977e+03
-1.017866577140000004e+03
-1.018294119870000031e+03
-1.016106394659999978e+03
-1.017474408219999987e+03
-1.015431952759999945e+03
-1.018275117049999949e+03
-1.017908721310000033e+03
-1.017376517570000033e+03
-1.019439839880000022e+03
-1.014991473960000008e+03
-1.017945656460000009e+03
-1.019717527000000018e+03
-1.016312826989999962e+03
-1.021880152609999982e+03
-1.016004106709999974e+03
-1.014249375800000053e+03
-1.020462359969999966e+03
-1.015977663979999988e+03
-1.018766911980000032e+03
-1.017542808710000031e+03
-1.016681075210000017e+03
-1.017633635320000053e+03
-1.015367460690000030e+03
-1.015102864260000047e+03
-1.015596586020000018e+03
-1.016414452310000001e+03
-1.016023716430000036e+03
-1.017600787780000019e+03
-1.014928382990000046e+03
-1.018947463269999957e+03
-1.018026214800000048e+03
-1.018023384480000004e+03
-1.020622050550000040e+03
-1.017267340149999995e+03
-1.016507958540000004e+03
-1.018393667069999992e+03
-1.016963973610000039e+03
-1.016480345110000030e+03
-1.012788899549999996e+03
-1.016600355710000031e+03
-1.018578573170000027e+03
-1.014136688359999994e+03
-1.016871457190000001e+03
-1.018886527659999956e+03
-1.018634090890000039e+03
-1.017897432950000052e+03
-1.018107979930000056e+03
-1.016000078970000004e+03
-1.016782710510000015e+03
-1.016183596650000027e+03
-1.016772848769999996e+03
-1.015918164580000052e+03
-1.017910453250000046e+03
-1.019443921720000048e+03
-1.016318830230000003e+03
-1.018717399020000016e+03
-1.016839702080000052e+03
-1.019091667089999987e+03
-1.021755526030000055e+03
-1.019099067439999999e+03
-1.017649293869999951e+03
-1.020373151140000004e+03
-1.018092464059999998e+03
-1.019370672779999950e+03
-1.014562307759999953e+03
-1.020251109919999976e+03
-1.017942973059999986e+03
-1.016752318800000012e+03
-1.019099689239999975e+03
-1.018408968479999999e+03
-1.016111307699999998e+03
-1.016501519669999993e+03
-1.015401024499999949e+03
-1.017354625260000034e+03
-1.019275226650000036e+03
-1.017824589790000005e+03
-1.016176559720000000e+03
-1.018566661419999946e+03
-1.020348894829999949e+03
-1.019571276720000014e+03
-1.017204655679999973e+03
-1.015569267149999973e+03
-1.015770273599999996e+03
-1.016808695779999994e+03
-1.017914150670000026e+03
-1.016668689429999972e+03
-1.019898463259999971e+03
-1.019441186170000037e+03
-1.016510920739999960e+03
-1.016281689489999962e+03
-1.017827170489999958e+03
-1.015609859909999955e+03
-1.016649553940000033e+03
-1.016569801099999950e+03
-1.018944585350000011e+03
-1.018177155599999992e+03
-1.017649493109999980e+03
-1.018884091079999962e+03
-1.018364427879999994e+03
-1.018983526780000034e+03
-1.017268629239999996e+03
-1.019694523050000043e+03
-1.020446230850000006e+03
-1.020125661749999949e+03
-1.017727778319999970e+03
-1.017719668619999993e+03
-1.020027765110000018e+03
-1.018273846970000022e+03
-1.019866315299999997e+03
-1.017807559940000033e+03
-1.018804318930000022e+03
-1.013322381719999953e+03
-1.017637262179999993e+03
-1.017292418129999987e+03
-1.017451903710000011e+03
-1.017689284749999956e+03
-1.016991777589999970e+03
-1.018631157010000038e+03
-1.018264608790000011e+03
-1.018963533859999984e+03
-1.014673268600000029e+03
-1.015301451670000006e+03
-1.017659727340000018e+03
-1.019694129029999999e+03
-1.018582400050000047e+03
-1.017529001669999957e+03
-1.019079582299999970e+03
-1.017262988240000027e+03
-1.010796819880000044e+03
-1.019330422819999967e+03
-1.022534674190000032e+03
-1.019604381839999974e+03
-1.019644456429999991e+03
-1.020432989089999978e+03
-1.015791988690000039e+03
-1.018590758029999961e+03
-1.011963410279999948e+03
-1.015807052310000017e+03
-1.016432287599999995e+03
-1.015144428390000030e+03
-1.018944747129999996e+03
-1.017462460350000015e+03
-1.014581223359999967e+03
-1.018917803270000036e+03
-1.017020499390000055e+03
-1.019608865229999992e+03
-1.018244823239999960e+03
-1.017032280600000036e+03
-1.017659601090000024e+03
-1.017710436139999956e+03
-1.019095775210000056e+03
-1.017410132419999968e+03
-1.015044493050000028e+03
-1.019931402670000011e+03
-1.018464195030000042e+03
-1.018723172370000043e+03
-1.019833953889999975e+03
-1.020221275999999989e+03
-1.016094111939999948e+03
-1.020254176540000003e+03
-1.017988590889999955e+03
-1.019523464429999990e+03
-1.019285611249999988e+03
-1.018100095249999981e+03
-1.019989827050000031e+03
-1.017407478869999977e+03
-1.019855186069999945e+03
-1.019107359090000045e+03
-1.018417273229999978e+03
-1.015517735959999982e+03
-1.016809106309999947e+03
-1.018040050419999943e+03
-1.015968537960000049e+03
-1.018976820360000033e+03
-1.018210941879999950e+03
-1.013072839489999978e+03
-1.014780809129999966e+03
-1.016970719189999954e+03
-1.018769801590000043e+03
-1.016915187090000018e+03
-1.019313437470000054e+03
-1.018644715199999951e+03
-1.017756966089999992e+03
-1.018433377489999998e+03
-1.019919895269999984e+03
-1.017094591580000042e+03
-1.019548963370000024e+03
-1.019937004569999999e+03
-1.019019621690000008e+03
-1.013011268709999968e+03
-1.020871385110000006e+03
-1.014430729489999976e+03
-1.016902210540000056e+03
-1.018569831690000001e+03
-1.018264955070000042e+03
-1.016300835679999977e+03
-1.020036805479999998e+03
-1.018501639780000005e+03
-1.013533876979999945e+03
-1.016659286780000002e+03
-1.016138630410000019e+03
-1.017956384589999971e+03
-1.013556686310000032e+03
-1.015637089059999994e+03
-1.018911022249999974e+03
-1.015550861639999994e+03
-1.019100756509999997e+03
-1.017217570570000021e+03
-1.018549471240000003e+03
-1.017864062829999966e+03
-1.012586399929999970e+03
-1.014796490049999989e+03
-1.016696991560000015e+03
-1.018508511320000025e+03
-1.018105082390000007e+03
-1.019573933079999961e+03
-1.018532379900000024e+03
-1.019452560579999954e+03
-1.015914384939999991e+03
-1.014314926539999988e+03
-1.017581936169999949e+03
-1.015907478979999951e+03
-1.020073868940000011e+03
-1.014219426480000038e+03
-1.016655023679999999e+03
-1.016322054650000041e+03
-1.017361783449999962e+03
-1.018319603629999961e+03
-1.019159587289999990e+03
-1.018767614549999962e+03
-1.016856100670000046e+03
-1.018811615930000016e+03
-1.016731095780000032e+03
-1.016449850309999988e+03
-1.020572146210000028e+03
-1.017850972439999964e+03
-1.019449968229999968e+03
-1.018929961889999959e+03
-1.019008889729999964e+03
-1.018432456989999991e+03
-1.017883269519999999e+03
-1.017289091539999959e+03
-1.020066854300000045e+03
-1.018967370380000034e+03
-1.017403387859999953e+03
-1.017512165729999992e+03
-1.019460182369999984e+03
-1.014598308439999983e+03
-1.016136155540000004e+03
-1.016669148260000043e+03
-1.015126402090000056e+03
-1.018329263080000032e+03
-1.016985452600000031e+03
-1.014581936000000042e+03
-1.018736076450000041e+03
-1.016664697929999988e+03
-1.020208150570000043e+03
-1.016382904090000011e+03
-1.017459154280000007e+03
-1.017748208320000003e+03
-1.019896414380000010e+03
-1.019104898800000001e+03
-1.014136711139999989e+03
-1.020010677340000029e+03
-1.021657716980000032e+03
-1.014646505339999976e+03
-1.017674223210000036e+03
-1.016275561939999989e+03
-1.015794129239999961e+03
-1.012641306949999944e+03
-1.016821990769999957e+03
-1.014936581179999962e+03
-1.013730612230000020e+03
-1.018777346340000008e+03
-1.016092597200000000e+03
-1.020184600000000046e+03
-1.018161717319999980e+03
-1.015966108920000011e+03
-1.018062153269999953e+03
-1.017394578769999953e+03
-1.017364407919999962e+03
-1.018643175960000008e+03
-1.020743953479999959e+03
-1.017709210030000008e+03
-1.016423436089999996e+03
-1.018275431830000002e+03
-1.017418035170000053e+03
-1.015455519900000013e+03
-1.019129467989999966e+03
-1.019180312989999948e+03
-1.019384815480000043e+03
-1.020203212519999965e+03
-1.021662379569999985e+03
-1.021027344849999963e+03
-1.019502632680000033e+03
-1.012688658619999956e+03
-1.018155346519999966e+03
-1.015070516150000003e+03
-1.020047883980000051e+03
-1.015469995690000019e+03
-1.020026926369999956e+03
-1.015365232239999955e+03
-1.015848545670000021e+03
-1.016390088490000039e+03
-1.018901241669999990e+03
-1.015060648529999980e+03
-1.014297678170000040e+03
-1.015561481559999947e+03
-1.017578243199999974e+03
-1.016570631100000014e+03
-1.016111509520000027e+03
-1.016915125220000050e+03
-1.019216064039999992e+03
-1.016798636160000001e+03
-1.019575970559999973e+03
-1.018692428329999984e+03
-1.016766089439999973e+03
-1.016289073759999951e+03
-1.016317427709999947e+03
-1.020089745279999988e+03
-1.019372714989999963e+03
-1.016357234420000054e+03
-1.019989217530000019e+03
-1.019553476749999959e+03
-1.020548226310000018e+03
-1.019101569440000048e+03
-1.015416577179999990e+03
-1.018999270710000019e+03
-1.016765377429999944e+03
-1.017626349089999962e+03
-1.016426611170000001e+03
-1.017927063960000055e+03
-1.018486096040000007e+03
-1.018650533500000051e+03
-1.016620986330000051e+03
-1.019595004229999972e+03
-1.017324017469999944e+03
-1.019989417460000027e+03
-1.014002946270000052e+03
-1.016076023670000041e+03
-1.017237707000000000e+03
-1.014990396659999988e+03
-1.016766614129999994e+03
-1.017671316599999955e+03
-1.015793993679999971e+03
-1.018763096310000037e+03
-1.019691664960000026e+03
-1.017651254839999979e+03
-1.012009145500000045e+03
-1.018026610720000008e+03
-1.021060510280000017e+03
-1.020888703930000020e+03
-1.019036650779999945e+03
-1.018455092329999957e+03
-1.016631211320000034e+03
-1.017011341769999945e+03
-1.017161899540000036e+03
-1.020098225469999988e+03
-1.018455412180000053e+03
-1.020317296159999955e+03
-1.017835293190000016e+03
-1.016731413429999975e+03
-1.019197308160000034e+03
-1.018695731229999978e+03
-1.013919883229999982e+03
-1.016328273640000020e+03
-1.018419766279999976e+03
-1.021071287289999987e+03
-1.017479993390000004e+03
-1.014961846160000050e+03
-1.016788428309999972e+03
-1.012741929320000054e+03
-1.019029377439999962e+03
-1.013777081729999963e+03
-1.018688810949999947e+03
-1.015233731469999952e+03
-1.021145618939999963e+03
-1.015513354349999986e+03
-1.016568867769999997e+03
-1.021279543149999995e+03
-1.017001303789999952e+03
-1.019756680039999992e+03
-1.016801692229999958e+03
-1.014968749440000011e+03
-1.019595007539999983e+03
-1.015625058009999975e+03
-1.014806569299999978e+03
-1.020209586790000003e+03
-1.020195201429999997e+03
-1.018147769570000037e+03
-1.018894119359999991e+03
-1.018468423980000011e+03
-1.014343876199999954e+03
-1.015869295979999947e+03
-1.015051412049999954e+03
-1.012710170560000051e+03
-1.017193991770000025e+03
-1.017684636419999947e+03
-1.022077962780000007e+03
-1.015757691489999957e+03
-1.019310880180000026e+03
-1.016299253880000037e+03
-1.016274440150000032e+03
-1.015125729810000053e+03
-1.014729521760000011e+03
-1.016574562710000009e+03
-1.019808833339999978e+03
-1.016259506679999959e+03
-1.020658017459999996e+03
-1.015985062190000008e+03
-1.014198236919999999e+03
-1.016502214810000055e+03
-1.013396016260000010e+03
-1.018242461769999977e+03
-1.014436525060000008e+03
-1.018648565360000021e+03
-1.018577500370000052e+03
-1.012382844190000014e+03
-1.021149443620000056e+03
-1.016869152999999983e+03
-1.017041151460000037e+03
-1.018702524810000000e+03
-1.019836877569999956e+03
-1.017901859609999974e+03
-1.013288657189999981e+03
-1.018207455419999974e+03
-1.016347696100000007e+03
-1.017277784139999994e+03
-1.020031625670000039e+03
-1.017162127110000029e+03
-1.020755240360000016e+03
-1.018553934890000050e+03
-1.016254696409999951e+03
-1.019065112030000023e+03
-1.015336640590000002e+03
-1.019223284669999998e+03
-1.015739735529999962e+03
-1.019228553459999944e+03
-1.014883171029999971e+03
-1.016870042529999978e+03
-1.017836934560000032e+03
-1.011606320579999988e+03
-1.017739668019999954e+03
-1.014592171699999994e+03
-1.016994762850000029e+03
-1.019657571910000001e+03
-1.015958599199999981e+03
-1.017125911859999974e+03
-1.016357669689999966e+03
-1.019949289010000030e+03
-1.017772743910000031e+03
-1.021652421630000049e+03
-1.016335096199999953e+03
-1.019426935899999989e+03
-1.016151884330000030e+03
-1.014790209249999975e+03
-1.019226856290000001e+03
-1.019587593969999944e+03
-1.013486993060000032e+03
-1.017273425610000004e+03
-1.017778486590000057e+03
-1.016736295199999972e+03
-1.016624667260000024e+03
-1.017942593610000017e+03
-1.020160398299999997e+03
-1.019840214960000026e+03
-1.016439367950000019e+03
-1.015684776710000051e+03
-1.020385362620000024e+03
-1.020306435579999970e+03
-1.019280094620000000e+03
-1.019161991159999957e+03
-1.017419159199999967e+03
-1.015910817859999952e+03
-1.014167379890000007e+03
-1.017635300669999992e+03
-1.017019329749999997e+03
-1.021436914989999991e+03
-1.016794332980000036e+03
-1.018974664650000022e+03
-1.018842000330000019e+03
-1.014938925489999974e+03
-1.017816643129999989e+03
-1.014852140999999961e+03
-1.015856799329999944e+03
-1.018450640140000019e+03
-1.020375218750000045e+03
-1.016839432699999975e+03
-1.018246065710000039e+03
-1.019443090900000016e+03
-1.019596559769999999e+03
-1.015224037289999956e+03
-1.017579906909999977e+03
-1.015408084609999946e+03
-1.016968637919999992e+03
-1.017168642610000006e+03
-1.018482634350000012e+03
-1.013466122870000049e+03
-1.015959144450000053e+03
-1.017238348100000053e+03
-1.020595693709999978e+03
-1.017297227170000042e+03
-1.020687112899999988e+03
-1.018395473960000004e+03
-1.016599900010000056e+03
-1.019688760789999947e+03
-1.016989424460000009e+03
-1.012856119440000043e+03
-1.016837974329999952e+03
-1.019445175769999992e+03
-1.019597872029999962e+03
-1.020020394059999944e+03
-1.020342995399999950e+03
-1.016583647889999952e+03
-1.018005476960000010e+03
-1.020590300299999967e+03
-1.021457435280000027e+03
-1.016421440599999983e+03
-1.017164651670000012e+03
-1.018914142820000052e+03
-1.019898015490000034e+03
-1.017693706020000036e+03
-1.019868416969999998e+03
-1.019144767949999959e+03
-1.017060893599999986e+03
-1.015926785399999972e+03
-1.018652215039999987e+03
-1.015996243219999997e+03
-1.018617442429999983e+03
-1.015593138930000009e+03
-1.017804031069999951e+03
-1.019533353669999997e+03
-1.018419759139999996e+03
-1.017491462019999972e+03
-1.014871622969999976e+03
-1.018032292750000011e+03
-1.014440710169999988e+03
-1.019440850240000032e+03
-1.018195324690000007e+03
-1.013926072259999955e+03
-1.014531808589999969e+03
-1.017021902240000031e+03
-1.017411426809999966e+03
-1.018575832300000002e+03
-1.020695097700000019e+03
-1.015501349529999970e+03
-1.017110065390000045e+03
-1.018059703809999974e+03
-1.016704614089999950e+03
-1.021130686019999985e+03
-1.022136215170000014e+03
-1.016037919259999967e+03
-1.015655634159999977e+03
-1.013944887150000000e+03
-1.016535525939999957e+03
-1.019350125049999974e+03
-1.017205319150000037e+03
-1.018988944110000034e+03
-1.017950577550000048e+03
-1.019970804730000054e+03
-1.016220650109999951e+03
-1.019933244189999982e+03
-1.019043824309999991e+03
-1.018322151449999978e+03
-1.021336187389999964e+03
-1.017672606660000042e+03
-1.020122108799999978e+03
-1.017041023310000014e+03
-1.018013067510000042e+03
-1.015709569750000014e+03
-1.018567593370000054e+03
-1.017634432930000003e+03
-1.018762924659999953e+03
-1.015178347570000028e+03
-1.016170588970000040e+03
-1.021048204240000018e+03
-1.019958483939999951e+03
-1.018927651289999972e+03
-1.018774664759999951e+03
-1.016131653020000044e+03
-1.014557536089999985e+03
-1.016836457289999998e+03
-1.020090598190000037e+03
-1.017375342049999972e+03
-1.016186635310000042e+03
-1.020550673380000035e+03
-1.014356658029999949e+03
-1.015983675179999977e+03
-1.018380213239999989e+03
-1.017775254239999981e+03
-1.017498265169999968e+03
-1.017499016600000004e+03
-1.020317301449999945e+03
-1.016698368980000055e+03
-1.016835403260000021e+03
-1.015865039890000048e+03
-1.021703274739999983e+03
-1.014264084130000015e+03
-1.017359508350000056e+03
-1.015839129309999976e+03
-1.015265093350000029e+03
-1.020590756950000014e+03
-1.019571560409999961e+03
-1.020218508879999945e+03
-1.016666659940000045e+03
-1.015699211129999981e+03
-1.015028274290000013e+03
-1.015922214489999988e+03
-1.017374193020000007e+03
-1.013943334960000016e+03
-1.012381620610000027e+03
-1.019132321599999955e+03
-1.019831206579999957e+03
-1.018320524409999962e+03
-1.018021474610000041e+03
-1.018741618829999993e+03
-1.019180544059999988e+03
-1.019653236549999974e+03
-1.016923649640000008e+03
-1.017443068519999997e+03
-1.020442975660000002e+03
-1.022003861570000026e+03
-1.016705015920000051e+03
-1.014737544559999947e+03
-1.017424239069999999e+03
-1.020789000740000006e+03
-1.017371683800000028e+03
-1.019405741379999995e+03
-1.017442596330000015e+03
-1.016166132560000051e+03
-1.016341525430000047e+03
-1.014869729750000033e+03
-1.019319643670000005e+03
-1.019356100139999967e+03
-1.016981546539999954e+03
-1.016882370140000035e+03
-1.016088100899999972e+03
-1.018667844560000049e+03
-1.016535778359999995e+03
-1.016390354750000029e+03
-1.017246363119999955e+03
-1.019205960160000018e+03
-1.017069477529999972e+03
-1.020478835669999967e+03
-1.020037712019999958e+03
-1.017980263840000021e+03
-1.018987336430000028e+03
-1.019770278149999967e+03
-1.017967753229999971e+03
-1.015765779690000045e+03
-1.018481277930000033e+03
-1.015565567750000014e+03
-1.020405508189999978e+03
-1.018316364020000037e+03
-1.018071629089999988e+03
-1.016651238079999985e+03
-1.016706600699999967e+03
-1.019667865450000022e+03
-1.014965621400000032e+03
-1.012013376839999978e+03
-1.015853243779999957e+03
-1.018080939950000015e+03
-1.017979933289999963e+03
-1.012909460480000007e+03
-1.018877291079999964e+03
-1.019110194959999944e+03
-1.018339253419999977e+03
-1.019684469629999967e+03
-1.018504939140000033e+03
-1.016729816840000012e+03
-1.018176638209999965e+03
-1.018108495889999972e+03
-1.016054072389999988e+03
-1.016977746590000038e+03
-1.017356805010000016e+03
-1.020005225999999993e+03
-1.018255260519999979e+03
-1.015676688760000047e+03
-1.019355388500000004e+03
-1.012649566449999952e+03
-1.019385758239999973e+03
-1.019826531799999998e+03
-1.019420202330000052e+03
-1.016866053259999944e+03
-1.017274123170000053e+03
-1.018640446829999973e+03
-1.020664896010000007e+03
-1.017291554259999998e+03
-1.016617121630000042e+03
-1.017706842670000015e+03
-1.016613766329999976e+03
-1.019543092640000054e+03
-1.019580719759999965e+03
-1.016506025420000014e+03
-1.021576051069999949e+03
-1.018592367599999989e+03
-1.015837791789999983e+03
-1.017389116869999953e+03
-1.019715000749999945e+03
-1.017382899419999944e+03
-1.017314238639999985e+03
-1.017138133079999989e+03
-1.018086764450000032e+03
-1.017339003420000040e+03
-1.018292976950000025e+03
-1.018085112650000042e+03
-1.021874677860000020e+03
-1.014981194169999981e+03
-1.016965437759999986e+03
-1.012406000199999994e+03
-1.017866930389999993e+03
-1.014714787190000038e+03
-1.017627903220000007e+03
-1.014000941710000006e+03
-1.016328367950000029e+03
-1.019796652099999960e+03
-1.018675680059999991e+03
-1.016079392480000024e+03
-1.018414179559999980e+03
-1.021948999749999984e+03
-1.015950242359999947e+03
-1.018570214179999994e+03
-1.016263012959999969e+03
-1.018358024809999961e+03
-1.018036987909999993e+03
-1.013979036790000009e+03
-1.015689454800000021e+03
-1.020298656670000014e+03
-1.015040328739999950e+03
-1.014457237129999953e+03
-1.017677590160000022e+03
-1.018358953349999979e+03
-1.016120525110000017e+03
-1.018709964190000051e+03
-1.019539893620000043e+03
-1.018051402240000016e+03
-1.018130563810000012e+03
-1.021039558130000046e+03
-1.016074776110000016e+03
-1.017069252369999958e+03
-1.016831140409999989e+03
-1.020627994680000029e+03
-1.014593662730000005e+03
-1.017239408020000042e+03
-1.018866090419999978e+03
-1.015919421830000033e+03
-1.015790418250000016e+03
-1.015595940049999967e+03
-1.017615529779999974e+03
-1.017872312699999952e+03
-1.016358900299999959e+03
-1.015694232120000038e+03
-1.014666291740000020e+03
-1.020484923380000055e+03
-1.014731565950000004e+03
-1.014474919020000016e+03
-1.017102498149999974e+03
-1.017351782220000018e+03
-1.019829978879999999e+03
-1.012217002119999961e+03
-1.017566733900000031e+03
-1.017042520449999984e+03
-1.015942733259999954e+03
-1.021701586679999991e+03
-1.019573080140000002e+03
-1.018587653169999953e+03
-1.014365993320000030e+03
-1.018326218590000053e+03
-1.014999482400000034e+03
-1.018052608319999990e+03
-1.018388298559999953e+03
-1.020090966190000017e+03
-1.013759177420000015e+03
-1.017909324299999980e+03
-1.018887344950000056e+03
-1.020152323909999950e+03
-1.018900656489999960e+03
-1.018594961699999999e+03
-1.014923340670000016e+03
-1.022657983289999947e+03