-3.005144950400000016e+04
-3.005386268600000039e+04
-3.005653960699999880e+04
-3.005412661999999909e+04
-3.005529943400000047e+04
-3.005225475400000141e+04
-3.005300504100000035e+04
-3.005368533200000093e+04
-3.005449053899999853e+04
-3.005312158800000179e+04
-3.005243090899999879e+04
-3.005410575800000152e+04
-3.004969146499999988e+04
-3.005275056499999846e+04
-3.005444628400000147e+04
-3.005359539199999926e+04
-3.005613526800000182e+04
-3.005520849599999929e+04
-3.005814948300000106e+04
-3.005171469300000172e+04
-3.005878205000000162e+04
-3.005663468700000158e+04
-3.004829779599999893e+04
-3.005410207299999820e+04
-3.005346218700000099e+04
-3.005730888799999957e+04
-3.004764790300000095e+04
-3.005421964600000138e+04
-3.005328184699999838e+04
-3.005182849599999827e+04
-3.005389441100000113e+04
-3.005555197000000044e+04
-3.005532351600000038e+04
-3.005430225699999937e+04
-3.005567483599999832e+04
-3.005694671899999958e+04
-3.005540617399999974e+04
-3.005257306999999855e+04
-3.005587343899999905e+04
-3.005649140500000067e+04
-3.005427665599999818e+04
-3.005537097100000028e+04
-3.005646468399999867e+04
-3.005525979699999880e+04
-3.005505535400000008e+04
-3.005260045099999843e+04
-3.005843094800000108e+04
-3.005184525500000018e+04
-3.005514086699999825e+04
-3.005346597000000111e+04
-3.005263226099999883e+04
-3.005674870599999849e+04
-3.005482836400000087e+04
-3.004931278799999927e+04
-3.005352296600000045e+04
-3.005800175099999979e+04
-3.005649367999999959e+04
-3.005511552300000039e+04
-3.005283813300000111e+04
-3.005487045600000056e+04
-3.005896529599999849e+04
-3.005416998299999977e+04
-3.005263921900000059e+04
-3.005559993400000167e+04
-3.005815414800000144e+04
-3.005565824499999871e+04
-3.005414149099999850e+04
-3.005349029099999825e+04
-3.005618251700000110e+04
-3.005392175100000168e+04
-3.005018347200000062e+04
-3.005491637800000171e+04
-3.005345699900000182e+04
-3.005716700700000001e+04
-3.005868631100000130e+04
-3.005173296100000152e+04
-3.005452200299999822e+04
-3.005346684100000130e+04
-3.005487415300000066e+04
-3.005382307700000092e+04
-3.005357030700000178e+04
-3.005512546099999963e+04
-3.005575809400000071e+04
-3.005379755600000135e+04
-3.005764657300000181e+04
-3.005656383300000016e+04
-3.005066753500000050e+04
-3.005361794300000111e+04
-3.005518757299999925e+04
-3.005560845300000074e+04
-3.005716726399999970e+04
-3.005411370199999874e+04
-3.005770218599999862e+04
-3.005197454199999993e+04
-3.005708115000000180e+04
-3.005218377300000066e+04
-3.005090894900000058e+04
-3.005308556699999826e+04
-3.005189911600000050e+04
-3.005062108699999953e+04
-3.005662947699999859e+04
-3.005059539399999994e+04
-3.005582173500000135e+04
-3.005211398399999962e+04
-3.005434465300000011e+04
-3.005428108300000167e+04
-3.005090160299999843e+04
-3.005536379899999883e+04
-3.004992801500000132e+04
-3.005436331599999903e+04
-3.005268262400000094e+04
-3.005421958100000120e+04
-3.005429482600000119e+04
-3.005519798299999820e+04
-3.005258842100000038e+04
-3.005426550599999973e+04
-3.005493894400000136e+04
-3.004971386500000153e+04
-3.005298992200000066e+04
-3.005247479999999996e+04
-3.005081556400000045e+04
-3.005438980100000117e+04
-3.005360578900000110e+04
-3.005299533499999961e+04
-3.005591483700000026e+04
-3.005518720000000030e+04
-3.005515952299999844e+04
-3.005504002899999978e+04
-3.005170900099999926e+04
-3.005336682099999962e+04
-3.005450076600000102e+04
-3.005361390899999969e+04
-3.005174749800000063e+04
-3.005401926100000128e+04
-3.005025464899999861e+04
-3.005218379400000049e+04
-3.005499043499999971e+04
-3.005218938999999955e+04
-3.005529480899999908e+04
-3.005123392800000147e+04
-3.005688131399999838e+04
-3.005011639099999957e+04
-3.005476644400000077e+04
-3.004936006999999881e+04
-3.005603693500000008e+04
-3.005125493199999983e+04
-3.005142559700000129e+04
-3.004929943500000081e+04
-3.005386869099999967e+04
-3.005655035000000134e+04
-3.005498685000000114e+04
-3.005400014500000179e+04
-3.005283732600000076e+04
-3.005303790700000172e+04
-3.005073028300000078e+04
-3.005149101000000155e+04
-3.005438650699999926e+04
-3.005544587699999829e+04
-3.005145955400000094e+04
-3.005238273100000151e+04
-3.005589388300000064e+04
-3.005489337000000160e+04
-3.005611659199999849e+04
-3.005180020800000057e+04
-3.005677475000000049e+04
-3.005363637400000152e+04
-3.005333181999999942e+04
-3.005347311600000103e+04
-3.005514694600000075e+04
-3.005607453600000008e+04
-3.005172124299999996e+04
-3.005461940500000128e+04
-3.005082552500000020e+04
-3.005655216999999902e+04
-3.005457513100000142e+04
-3.005546609499999977e+04
-3.005413631499999974e+04
-3.005388927899999908e+04
-3.005907968700000129e+04
-3.005414636199999950e+04
-3.005708711799999946e+04
-3.005430122800000026e+04
-3.005133759700000155e+04
-3.005423904100000073e+04
-3.005117529400000058e+04
-3.005429745199999888e+04
-3.005163559099999839e+04
-3.005640196700000160e+04
-3.004677197199999864e+04
-3.005340908399999898e+04
-3.005439496700000018e+04
-3.005508467200000086e+04
-3.005751872500000172e+04
-3.005500597900000139e+04
-3.005199849900000117e+04
-3.005553441400000156e+04
-3.005416613100000177e+04
-3.005205467499999941e+04
-3.005379504699999961e+04
-3.005704459199999837e+04
-3.005453645400000096e+04
-3.005407106399999975e+04
-3.005269810399999915e+04
-3.005168136900000172e+04
-3.005254119699999865e+04
-3.005389943599999970e+04
-3.005578433399999994e+04
-3.005157313699999941e+04
-3.005017610699999932e+04
-3.005426846799999839e+04
-3.005695796899999914e+04
-3.005238171599999987e+04
-3.004752536500000133e+04
-3.005573419500000091e+04
-3.005122217799999999e+04
-3.005514047999999821e+04
-3.005465261299999838e+04
-3.005442455899999914e+04
-3.005198959399999876e+04
-3.005677645100000154e+04
-3.005339625099999830e+04
-3.005511243200000172e+04
-3.004932417599999826e+04
-3.005657649500000116e+04
-3.005260090900000068e+04
-3.005447752699999910e+04
-3.005254354299999977e+04
-3.005023193099999844e+04
-3.005051704400000017e+04
-3.005479889900000126e+04
-3.005318892300000152e+04
-3.005469661300000007e+04
-3.005255639099999826e+04
-3.005432257300000128e+04
-3.005700270200000159e+04
-3.005398990100000083e+04
-3.005612591800000155e+04
-3.005384004199999981e+04
-3.005210785499999838e+04
-3.005251239200000055e+04
-3.005470810500000152e+04
-3.005305172099999982e+04
-3.005470327700000053e+04
-3.005451441300000079e+04
-3.005427987800000119e+04
-3.005086271499999930e+04
-3.005348369399999865e+04
-3.005059740199999942e+04
-3.005555534500000067e+04
-3.005068040299999848e+04
-3.005653356400000121e+04
-3.005460558500000116e+04
-3.004867117100000178e+04
-3.005293250800000169e+04
-3.004916375799999878e+04
-3.005510060099999828e+04
-3.005544731400000092e+04
-3.005672723400000177e+04
-3.005186857600000076e+04
-3.005490633399999933e+04
-3.005170331699999952e+04
-3.005384574100000100e+04
-3.005217790099999911e+04
-3.005369209499999852e+04
-3.005494890899999882e+04
-3.005402113900000040e+04
-3.005493451799999821e+04
-3.005111338099999921e+04
-3.005590483899999890e+04
-3.005227342900000076e+04
-3.005062217600000076e+04
-3.005431194300000061e+04
-3.005568598299999940e+04
-3.005767815300000075e+04
-3.005413799500000096e+04
-3.005704023400000005e+04
-3.005423562300000049e+04
-3.005598807899999883e+04
-3.004889270599999873e+04
-3.005372926100000041e+04
-3.005537963899999886e+04
-3.005218361699999878e+04
-3.005865586099999928e+04
-3.005441584800000055e+04
-3.005271994999999879e+04
-3.005467208799999935e+04
-3.005597786999999880e+04
-3.005397072499999922e+04
-3.005072667300000103e+04
-3.005191834999999992e+04
-3.005691504599999826e+04
-3.005540015399999902e+04
-3.005506096500000058e+04
-3.005209822500000155e+04
-3.005443326299999899e+04
-3.005477821400000175e+04
-3.005480194699999993e+04
-3.004913534799999979e+04
-3.005553766600000017e+04
-3.005596110899999985e+04
-3.005542689500000051e+04
-3.005401150899999993e+04
-3.005490816999999879e+04
-3.005216796700000123e+04
-3.005406656500000099e+04
-3.005848290999999881e+04
-3.005056802199999947e+04
-3.005320825600000171e+04
-3.005381245000000126e+04
-3.005320988099999886e+04
-3.005200153900000078e+04
-3.005237464700000055e+04
-3.005685761300000013e+04
-3.005275904699999955e+04
-3.005599930799999856e+04
-3.005369544500000120e+04
-3.005490956100000039e+04
-3.005569582100000116e+04
-3.005436734100000103e+04
-3.004818916499999978e+04
-3.005219726699999956e+04
-3.005036718100000144e+04
-3.005173845100000108e+04
-3.005606962800000110e+04
-3.005868787599999996e+04
-3.005221021699999983e+04
-3.005392309599999862e+04
-3.005060248399999909e+04
-3.005359682800000155e+04
-3.005459409999999843e+04
-3.005261207099999956e+04
-3.005417592199999854e+04
-3.005525163299999986e+04
-3.005155991500000164e+04
-3.005370450400000118e+04
-3.005335497300000134e+04
-3.005687713900000017e+04
-3.005462947200000053e+04
-3.005650149700000111e+04
-3.005413143399999899e+04
-3.005710694399999920e+04
-3.005189115600000150e+04
-3.005695539899999858e+04
-3.005307614499999909e+04
-3.005421702100000039e+04
-3.005258749000000171e+04
-3.005544880700000067e+04
-3.005565494899999976e+04
-3.005697949199999857e+04
-3.005505301500000132e+04
-3.005336700600000040e+04
-3.005574139899999864e+04
-3.005294066100000055e+04
-3.005131279400000130e+04
-3.005649346299999888e+04
-3.005174829799999861e+04
-3.005410917500000141e+04
-3.005542147299999851e+04
-3.005659496900000158e+04
-3.005344757699999900e+04
-3.005420001899999988e+04
-3.005461104899999918e+04
-3.005230138000000079e+04
-3.005632823500000086e+04
-3.005402233799999885e+04
-3.005456070600000021e+04
-3.005002958299999955e+04
-3.005770316800000001e+04
-3.005478524100000141e+04
-3.005661574499999915e+04
-3.005784476899999936e+04
-3.005494557999999961e+04
-3.005752093999999852e+04
-3.005800264999999854e+04
-3.005580420800000138e+04
-3.005682339100000172e+04
-3.005462337299999854e+04
-3.005602977200000169e+04
-3.005381156499999997e+04
-3.005292751700000008e+04
-3.005545815399999992e+04
-3.005531074799999988e+04
-3.005367482499999824e+04
-3.005516217400000096e+04
-3.005015693399999873e+04
-3.005753170099999988e+04
-3.005728031299999930e+04
-3.005575665899999876e+04
-3.005405915499999901e+04
-3.005345451799999864e+04
-3.005631387199999881e+04
-3.005953098300000056e+04
-3.005076792399999977e+04
-3.005373007000000143e+04
-3.005493603499999881e+04
-3.005505326000000059e+04
-3.005915676399999938e+04
-3.005777559399999882e+04
-3.005246846899999946e+04
-3.005507879699999830e+04
-3.005327381700000115e+04
-3.005617632999999842e+04
-3.005274964099999852e+04
-3.005281963600000017e+04
-3.005691799800000081e+04
-3.005228711200000180e+04
-3.005850573100000111e+04
-3.005579647699999987e+04
-3.005259700399999929e+04
-3.005084355000000141e+04
-3.005174033200000122e+04
-3.005802713600000061e+04
-3.005445040599999993e+04
-3.005602141199999824e+04
-3.005236409999999887e+04
-3.005216567299999952e+04
-3.005127422099999967e+04
-3.005732644399999845e+04
-3.005515114900000117e+04
-3.005604655300000013e+04
-3.005421878099999958e+04
-3.005393050199999925e+04
-3.005593351099999927e+04
-3.005375160600000163e+04
-3.005464620400000058e+04
-3.005705264900000111e+04
-3.005323936300000059e+04
-3.005062402899999870e+04
-3.004889709900000162e+04
-3.005438480699999855e+04
-3.005364981600000101e+04
-3.005138338300000032e+04
-3.005376284200000009e+04
-3.005115302099999826e+04
-3.005438948499999969e+04
-3.005899816199999987e+04
-3.005354194799999823e+04
-3.005531836299999850e+04
-3.005013568799999848e+04
-3.005136808799999926e+04
-3.004946002500000031e+04
-3.005722703299999921e+04
-3.005305415400000129e+04
-3.005225318799999877e+04
-3.005229162100000030e+04
-3.005437201799999821e+04
-3.005256030599999940e+04
-3.005638835699999981e+04
-3.005535086500000034e+04
-3.005654332100000101e+04
-3.005548994200000016e+04
-3.005618815900000118e+04
-3.005421761899999910e+04
-3.005511860299999898e+04
-3.005933861500000057e+04
-3.005242369500000132e+04
-3.005582448999999906e+04
-3.005346463900000163e+04
-3.005384838699999818e+04
-3.005096101899999849e+04
-3.005560532800000146e+04
-3.005460391900000104e+04
-3.005596921300000031e+04
-3.005242146399999910e+04
-3.005064874200000122e+04
-3.005669976400000087e+04
-3.005470331499999884e+04
-3.005599319200000173e+04
-3.005653296400000181e+04
-3.005376253300000099e+04
-3.005554418799999985e+04
-3.005309612500000003e+04
-3.005089327899999989e+04
-3.005544487600000139e+04
-3.005587424499999906e+04
-3.005551991400000043e+04
-3.005178917400000137e+04
-3.005332640399999946e+04
-3.005337352100000135e+04
-3.005359523800000170e+04
-3.005514638299999933e+04
-3.005583914200000072e+04
-3.005520532900000035e+04
-3.005249497200000042e+04
-3.005853285500000129e+04
-3.005548619600000166e+04
-3.005056872600000133e+04
-3.005319904799999858e+04
-3.005455434199999945e+04
-3.005154733199999828e+04
-3.005354964900000050e+04
-3.005397212700000091e+04
-3.005929656299999988e+04
-3.005440544700000100e+04
-3.005783064799999920e+04
-3.005602092500000072e+04
-3.005605636800000138e+04
-3.005311973399999988e+04
-3.005293478899999900e+04
-3.004959923500000150e+04
-3.005070343800000046e+04
-3.005696003399999972e+04
-3.005630506999999852e+04
-3.005242813999999998e+04
-3.005571320500000002e+04
-3.005087431500000093e+04
-3.005485044800000105e+04
-3.005468050999999832e+04
-3.005495480300000054e+04
-3.005414867099999901e+04
-3.005313920199999848e+04
-3.005671417999999903e+04
-3.005452282199999900e+04
-3.004957154299999820e+04
-3.005284431200000108e+04
-3.004937508099999832e+04
-3.005433505499999956e+04
-3.005116403400000127e+04
-3.005466472499999873e+04
-3.005318419100000028e+04
-3.005727056100000118e+04
-3.005287131199999931e+04
-3.005309032300000035e+04
-3.005702773299999899e+04
-3.005256822900000043e+04
-3.005213099900000088e+04
-3.005265002000000095e+04
-3.005162513899999976e+04
-3.005486033300000054e+04
-3.005505163399999947e+04
-3.005556276699999944e+04
-3.005358658600000126e+04
-3.005535000500000024e+04
-3.005307164199999897e+04
-3.005124822900000072e+04
-3.005565796599999885e+04
-3.005834087699999873e+04
-3.005597153199999957e+04
-3.005398173099999985e+04
-3.005821937500000058e+04
-3.004888825899999938e+04
-3.005478336100000161e+04
-3.005252199200000177e+04
-3.005593215899999996e+04
-3.005816039900000033e+04
-3.005559046600000147e+04
-3.005512648500000068e+04
-3.005864694900000177e+04
-3.004912376800000129e+04
-3.005293759499999942e+04
-3.005457520899999872e+04
-3.005596379099999831e+04
-3.005441587900000013e+04
-3.005453159600000072e+04
-3.005491807500000141e+04
-3.005363993399999890e+04
-3.005014071500000136e+04
-3.005497520300000178e+04
-3.005445388000000094e+04
-3.005417235399999845e+04
-3.005280463900000177e+04
-3.005845591399999830e+04
-3.005041071300000112e+04
-3.005573892999999953e+04
-3.004943054100000154e+04
-3.005348473000000013e+04
-3.005440290399999867e+04
-3.005542961300000024e+04
-3.005159629100000166e+04
-3.005694879900000160e+04
-3.005237526300000172e+04
-3.005396750099999917e+04
-3.005257113200000094e+04
-3.005568251199999941e+04
-3.005546974400000181e+04
-3.005477751500000159e+04
-3.005743648599999869e+04
-3.005552395099999922e+04
-3.005322435799999948e+04
-3.005331636399999843e+04
-3.006017349100000138e+04
-3.005584895099999994e+04
-3.005722650799999974e+04
-3.005416918300000179e+04
-3.005492224100000021e+04
-3.005510228400000051e+04
-3.005420580400000108e+04
-3.005431514299999981e+04
-3.005308000900000116e+04
-3.005304909599999883e+04
-3.005356563200000164e+04
-3.004903581900000063e+04
-3.005502569500000027e+04
-3.005621476199999961e+04
-3.005721464399999968e+04
-3.005602832299999864e+04
-3.005457144200000039e+04
-3.005328942499999903e+04
-3.005475545100000090e+04
-3.005255132999999842e+04
-3.005591224100000181e+04
-3.005026964700000099e+04
-3.005367471899999873e+04
-3.005513830600000074e+04
-3.005395041599999968e+04
-3.005626454500000182e+04
-3.005384650300000067e+04
-3.005363842300000033e+04
-3.005268882700000177e+04
-3.005733471199999985e+04
-3.004989470300000175e+04
-3.005636047500000132e+04
-3.005314476300000024e+04
-3.005361707899999965e+04
-3.005351932700000179e+04
-3.005531785799999852e+04
-3.005439969900000142e+04
-3.005816452199999912e+04
-3.005497356500000024e+04
-3.005508909900000072e+04
-3.005453787300000113e+04
-3.005188848399999915e+04
-3.005367640699999902e+04
-3.005743435799999861e+04
-3.005317846700000155e+04
-3.005620806200000152e+04
-3.005354092799999853e+04
-3.005493145999999979e+04
-3.005500973399999930e+04
-3.004902205300000060e+04
-3.005274593200000163e+04
-3.005438165200000003e+04
-3.004726930699999866e+04
-3.005568008900000132e+04
-3.005067441300000064e+04
-3.005539226200000121e+04
-3.005233179899999959e+04
-3.004990165599999818e+04
-3.005329598500000066e+04
-3.005120627700000114e+04
-3.005547416599999997e+04
-3.005461165400000027e+04
-3.005409547899999961e+04
-3.005476579599999968e+04
-3.005504564200000095e+04
-3.005284728399999949e+04
-3.005838396700000158e+04
-3.005638228700000036e+04
-3.005393302599999879e+04
-3.005605635899999834e+04
-3.005353086400000029e+04
-3.005803647600000113e+04
-3.005680811299999914e+04
-3.005312970100000166e+04
-3.005387934799999857e+04
-3.005443406600000162e+04
-3.005168284900000072e+04
-3.005642598999999973e+04
-3.005481831099999908e+04
-3.005575757499999963e+04
-3.005104689800000051e+04
-3.005595237300000008e+04
-3.005247203699999955e+04
-3.005225526199999877e+04
-3.005812136299999838e+04
-3.005321903799999927e+04
-3.005425775699999940e+04
-3.005783372400000007e+04
-3.005272538999999961e+04
-3.005072432100000151e+04
-3.005003250000000116e+04
-3.005441618000000017e+04
-3.005159769199999937e+04
-3.005372165699999823e+04
-3.005485667900000044e+04
-3.005455871499999921e+04
-3.005726682499999879e+04
-3.005790488399999958e+04
-3.005488241800000105e+04
-3.004836541399999987e+04
-3.005369250900000043e+04
-3.005367234299999836e+04
-3.005204961399999956e+04
-3.005029851000000053e+04
-3.005434001300000091e+04
-3.005447534100000121e+04
-3.005316670599999998e+04
-3.005559942600000068e+04
-3.006001411599999847e+04
-3.005573067100000117e+04
-3.005450231500000154e+04
-3.005624266999999963e+04
-3.005286961099999826e+04
-3.004976742400000148e+04
-3.005124145900000076e+04
-3.005085251000000062e+04
-3.005467746800000168e+04
-3.005453142099999968e+04
-3.005639261999999871e+04
-3.005425686599999972e+04
-3.005444243400000050e+04
-3.005233382300000085e+04
-3.005415043499999956e+04
-3.005708984200000123e+04
-3.005245932199999879e+04
-3.005439668700000038e+04
-3.005334774900000048e+04
-3.005486520200000086e+04
-3.005043259200000102e+04
-3.005267577499999970e+04
-3.005348083799999949e+04
-3.005779253600000084e+04
-3.005152929199999926e+04
-3.005283178400000179e+04
-3.005458134799999971e+04
-3.005381340300000011e+04
-3.005601952499999970e+04
-3.005317192200000136e+04
-3.005907076199999938e+04
-3.005460153200000059e+04
-3.005320025399999940e+04
-3.005814867900000172e+04
-3.005501357199999984e+04
-3.005755953399999999e+04
-3.005375797299999977e+04
-3.005444573899999887e+04
-3.005428682699999990e+04
-3.005723771900000065e+04
-3.005262663899999825e+04
-3.004828936800000156e+04
-3.005350685000000158e+04
-3.005332671499999924e+04
-3.005606267600000137e+04
-3.005027165199999945e+04
-3.004649963700000080e+04
-3.005408002199999828e+04
-3.005598462500000096e+04
-3.005153148100000180e+04
-3.005461722500000178e+04
-3.005469524399999864e+04
-3.004976321299999836e+04
-3.005407287300000098e+04
-3.005612668100000155e+04
-3.005256544299999950e+04
-3.005558510300000125e+04
-3.005295258900000044e+04
-3.005639687399999821e+04
-3.005481036799999856e+04
-3.005337091299999884e+04
-3.005555371899999955e+04
-3.005137861500000145e+04
-3.005450217300000077e+04
-3.005713959199999954e+04
-3.005330700000000070e+04
-3.005511854600000152e+04
-3.005240584500000114e+04
-3.005361468600000080e+04
-3.005388388199999827e+04
-3.004967731999999887e+04
-3.005532459599999856e+04
-3.005534649500000160e+04
-3.005159077299999990e+04
-3.005332184399999824e+04
-3.005510632500000065e+04
-3.005413802099999884e+04
-3.005312282200000118e+04
-3.005476789899999858e+04
-3.005726097500000105e+04
-3.005236957400000028e+04
-3.005203624700000000e+04
-3.005249830500000098e+04
-3.005308022300000084e+04
-3.005358381799999916e+04
-3.005376625699999931e+04
-3.005261583199999950e+04
-3.005573861799999941e+04
-3.005638320999999996e+04
-3.005206801899999846e+04
-3.005243672099999822e+04
-3.005271374600000127e+04
-3.005640542300000016e+04
-3.005896891600000163e+04
-3.005767327999999907e+04
-3.005399437200000102e+04
-3.005433368200000041e+04
-3.005205239200000142e+04
-3.005553064100000120e+04
-3.004813056100000176e+04
-3.005373349500000040e+04
-3.005333844999999928e+04
-3.005579849800000011e+04
-3.005321240400000170e+04
-3.004878346199999942e+04
-3.005495034799999848e+04
-3.005605874499999845e+04
-3.005218693400000120e+04
-3.005062220299999899e+04
-3.005130533400000058e+04
-3.005744322699999975e+04
-3.005569021699999939e+04
-3.005847791299999881e+04
-3.005324927100000059e+04
-3.005628352599999926e+04
-3.005610540599999877e+04
-3.005374142700000084e+04
-3.005452076400000078e+04
-3.005500674000000072e+04
-3.005257707500000106e+04
-3.005492778299999918e+04
-3.005718057100000078e+04
-3.005350273300000117e+04
-3.005745317599999908e+04
-3.005262864500000069e+04
-3.005562079000000085e+04
-3.005564119199999914e+04
-3.005693139800000063e+04
-3.004699891299999945e+04
-3.005271759499999825e+04
-3.005218815099999847e+04
-3.005320899799999825e+04
-3.005350186400000166e+04
-3.005319576400000005e+04
-3.005541449099999954e+04
-3.005179221300000063e+04
-3.005139824600000065e+04
-3.005662038899999970e+04
-3.006127662799999962e+04
-3.005092234299999836e+04
-3.005299166799999875e+04
-3.005260281699999905e+04
-3.005642497799999910e+04
-3.005438923900000009e+04
-3.005692776400000002e+04
-3.005365567799999917e+04
-3.005705495099999825e+04
-3.005312299100000018e+04
-3.005144515899999897e+04
-3.005160770300000149e+04
-3.005483219499999905e+04
-3.005513021999999910e+04
-3.005367807800000082e+04
-3.005444382899999982e+04
-3.005285963800000172e+04
-3.005529615399999966e+04
-3.005164056100000016e+04
-3.005429469199999949e+04
-3.005385729300000094e+04
-3.005467467599999873e+04
-3.005113074200000119e+04
-3.005244216999999844e+04
-3.005653294699999969e+04
-3.005614756100000159e+04
-3.005513100499999928e+04
-3.005624920500000007e+04
-3.005674960700000156e+04
-3.005199087100000179e+04
-3.005589071799999874e+04
-3.005764235800000097e+04
-3.005328892999999880e+04
-3.005213264599999820e+04
-3.005440404599999965e+04
-3.005189623099999881e+04
-3.005537227799999891e+04
-3.005305898900000102e+04
-3.005464888000000064e+04
-3.005313068700000076e+04
-3.005676385999999911e+04
-3.005287268000000040e+04
-3.005548420299999998e+04
-3.005494837399999960e+04
-3.005222312400000010e+04
-3.005586308199999985e+04
-3.005548221299999932e+04
-3.005584284699999989e+04
-3.005515495999999985e+04
-3.005257152399999904e+04
-3.005601400400000057e+04
-3.005507244400000127e+04
-3.005400734200000079e+04
-3.005338797899999918e+04
-3.005584959800000070e+04
-3.005544358500000089e+04
-3.005350449300000037e+04
-3.005351846600000135e+04
-3.005170234500000151e+04
-3.005522035799999867e+04
-3.005173527599999943e+04
-3.005533567200000107e+04
-3.005600288100000034e+04
-3.005063021899999876e+04
-3.005443512299999929e+04
-3.005907565199999954e+04
-3.005530602799999906e+04
-3.005817312600000150e+04
-3.005083830099999977e+04
-3.005318944700000065e+04
-3.005387281499999881e+04
-3.005719494199999826e+04
-3.005419970699999976e+04
-3.005131079500000124e+04
-3.005559316499999841e+04
-3.005082911900000181e+04
-3.005593980300000112e+04
-3.005320568999999887e+04
-3.005644979500000045e+04
-3.005554268600000069e+04
-3.005607518699999855e+04
-3.005591238800000065e+04
-3.004954389900000024e+04
-3.005368035700000110e+04
-3.005305324100000144e+04
-3.005479834800000026e+04
-3.005307504400000107e+04
-3.005464215899999908e+04
-3.005157478199999969e+04
-3.005402563699999882e+04
-3.005363795899999968e+04
-3.004776630899999873e+04
-3.005143333599999823e+04
-3.005650076999999874e+04
-3.005047379999999976e+04
-3.005356424500000139e+04
-3.005396626299999843e+04
-3.005281524999999965e+04
-3.005314704300000085e+04
-3.005258619000000181e+04
-3.005485609299999851e+04
-3.005282290300000022e+04
-3.005650447300000087e+04
-3.005604740600000150e+04
-3.005215759899999830e+04
-3.005755186300000059e+04
-3.005287197499999820e+04
-3.005527562400000170e+04
-3.005647682699999859e+04
-3.005376155400000061e+04
-3.005399615899999844e+04
-3.005327573100000154e+04
-3.005651496899999984e+04
-3.005406795399999828e+04
-3.005311734699999943e+04
-3.005414546200000041e+04
-3.005128463600000032e+04
-3.005303063399999883e+04
-3.005664554100000169e+04
-3.005138287800000035e+04
-3.005476819500000056e+04
-3.005371615000000020e+04
-3.005571707800000149e+04
-3.005045065999999861e+04
-3.005387040500000148e+04
-3.005223660499999824e+04
-3.005501141199999984e+04
-3.005502979000000050e+04
-3.005611501299999873e+04
-3.005242362100000173e+04
-3.005610163299999840e+04
-3.005223232500000086e+04
-3.005334172699999908e+04
-3.005380918499999825e+04
-3.005135930200000075e+04
-3.005609636699999828e+04
-3.005156267300000036e+04
-3.005552442800000063e+04
-3.004885719899999822e+04
-3.005414591600000131e+04
-3.005751524100000097e+04
-3.005359772800000064e+04
-3.005469386099999974e+04
-3.005409454700000060e+04
-3.005413386600000013e+04
-3.005415356500000053e+04
-3.005381935499999963e+04
-3.005309950799999933e+04
-3.005685075599999982e+04
-3.005464527799999996e+04
-3.004555218999999852e+04
-3.005118816499999957e+04
-3.005624803500000053e+04
-3.005961457399999927e+04
-3.005224661800000104e+04
-3.004958065100000022e+04
-3.005554468600000109e+04
-3.005324169800000163e+04
-3.005565470300000015e+04
-3.005561349100000007e+04
-3.005532334700000138e+04
-3.005679259599999932e+04
-3.005261093500000061e+04
-3.005669699100000071e+04
-3.005619669100000101e+04
-3.005364608999999837e+04
-3.005254135400000087e+04
-3.005110490600000048e+04
-3.005508760999999868e+04
-3.005421502200000032e+04
-3.005319250200000170e+04
-3.005241405700000178e+04
-3.005604219999999987e+04
-3.005361168000000180e+04
