-3.424890000000000146e+04 5.496979999999999563e+03 4.222439999999999600e+03 5.496979999999999563e+03 -6.665200000000000000e+04 -1.308970000000000073e+04 4.222439999999999600e+03 -1.308970000000000073e+04 -4.460109999999999854e+04
-3.061329999999999927e+04 -8.703200000000000728e+03 5.347380000000000109e+03 -8.703200000000000728e+03 -3.557590000000000146e+04 -4.830880000000000109e+03 5.347380000000000109e+03 -4.830880000000000109e+03 -5.566909999999999854e+04
-4.443059999999999854e+04 1.961390000000000100e+03 9.414909999999999854e+03 1.961390000000000100e+03 -4.296980000000000291e+04 8.578600000000000364e+03 9.414909999999999854e+03 8.578600000000000364e+03 -2.852500000000000000e+04
-4.019230000000000291e+04 2.172420000000000073e+04 8.570069999999999709e+03 2.172420000000000073e+04 -2.420409999999999854e+04 -8.697170000000000073e+03 8.570069999999999709e+03 -8.697170000000000073e+03 -3.971200000000000000e+04
-5.799069999999999709e+04 4.099750000000000000e+03 -6.205750000000000000e+03 4.099750000000000000e+03 -3.839330000000000291e+04 1.085100000000000000e+04 -6.205750000000000000e+03 1.085100000000000000e+04 -3.254959999999999854e+04
-2.462500000000000000e+04 5.924630000000000109e+03 5.268079999999999927e+03 5.924630000000000109e+03 -2.945409999999999854e+04 4.340859999999999673e+03 5.268079999999999927e+03 4.340859999999999673e+03 -3.740559999999999854e+04
-4.502119999999999709e+04 -2.352849999999999909e+03 8.008119999999999891e+03 -2.352849999999999909e+03 -6.203809999999999854e+04 -7.343630000000000109e+03 8.008119999999999891e+03 -7.343630000000000109e+03 -5.466609999999999854e+04
-3.341869999999999709e+04 2.451409999999999854e+03 -3.195190000000000055e+03 2.451409999999999854e+03 -4.014140000000000146e+04 2.228689999999999998e+02 -3.195190000000000055e+03 2.228689999999999998e+02 -9.760620000000000800e+03
-3.542800000000000000e+04 -8.076380000000000109e+03 8.691579999999999927e+03 -8.076380000000000109e+03 -3.983359999999999854e+04 7.549439999999999600e+03 8.691579999999999927e+03 7.549439999999999600e+03 -6.024090000000000146e+04
-3.962100000000000000e+04 1.268420000000000073e+04 1.070389999999999964e+04 1.268420000000000073e+04 -3.344540000000000146e+04 -6.921430000000000291e+03 1.070389999999999964e+04 -6.921430000000000291e+03 -4.126850000000000000e+04
-3.975169999999999709e+04 4.427220000000000255e+03 -1.375220000000000073e+04 4.427220000000000255e+03 -3.062070000000000073e+04 -2.478920000000000073e+03 -1.375220000000000073e+04 -2.478920000000000073e+03 -2.872359999999999854e+04
-3.137229999999999927e+04 7.785250000000000000e+03 8.803379999999999200e+03 7.785250000000000000e+03 -2.784109999999999854e+04 -1.244529999999999927e+04 8.803379999999999200e+03 -1.244529999999999927e+04 -3.492919999999999709e+04
-6.597000000000000000e+04 -1.153860000000000036e+04 2.157659999999999854e+04 -1.153860000000000036e+04 -5.423559999999999854e+04 1.175629999999999927e+04 2.157659999999999854e+04 1.175629999999999927e+04 -4.074050000000000000e+04
-4.682580000000000291e+04 3.536179999999999836e+03 -1.565380000000000109e+03 3.536179999999999836e+03 -1.717529999999999927e+04 1.838700000000000045e+03 -1.565380000000000109e+03 1.838700000000000045e+03 -3.553540000000000146e+04
-2.281500000000000000e+04 4.201399999999999864e+02 5.319569999999999709e+03 4.201399999999999864e+02 -3.035900000000000000e+04 1.017460000000000036e+04 5.319569999999999709e+03 1.017460000000000036e+04 -5.166640000000000146e+04
-3.746630000000000291e+04 -1.691650000000000000e+04 6.577489999999999782e+03 -1.691650000000000000e+04 -3.900690000000000146e+04 2.578070000000000164e+03 6.577489999999999782e+03 2.578070000000000164e+03 -2.766920000000000073e+04
-1.627279999999999927e+04 -1.831229999999999927e+04 3.009829999999999927e+03 -1.831229999999999927e+04 -2.587379999999999927e+04 6.945260000000000218e+03 3.009829999999999927e+03 6.945260000000000218e+03 -4.638830000000000291e+04
-3.280709999999999854e+04 -4.382350000000000364e+03 1.206760000000000036e+04 -4.382350000000000364e+03 -5.016380000000000291e+04 4.334390000000000327e+03 1.206760000000000036e+04 4.334390000000000327e+03 -4.200240000000000146e+04
-1.568689999999999964e+04 -1.045470000000000073e+04 -5.788700000000000045e+02 -1.045470000000000073e+04 -1.907459999999999854e+04 7.154449999999999818e+03 -5.788700000000000045e+02 7.154449999999999818e+03 -2.248120000000000073e+04
-3.532990000000000146e+04 -4.973430000000000291e+03 7.398359999999999673e+03 -4.973430000000000291e+03 -4.582359999999999854e+04 -6.864060000000000400e+03 7.398359999999999673e+03 -6.864060000000000400e+03 -3.672740000000000146e+04
-4.176850000000000000e+04 -4.063559999999999945e+03 2.998059999999999832e+02 -4.063559999999999945e+03 -7.836300000000000182e+03 -1.844880000000000109e+03 2.998059999999999832e+02 -1.844880000000000109e+03 -2.404979999999999927e+04
-2.447950000000000000e+04 -1.565230000000000018e+03 -9.715750000000000000e+03 -1.565230000000000018e+03 -4.966969999999999709e+04 2.608809999999999945e+03 -9.715750000000000000e+03 2.608809999999999945e+03 -2.416900000000000000e+04
-5.343869999999999709e+04 -3.890119999999999891e+03 -8.319100000000000364e+03 -3.890119999999999891e+03 -3.800430000000000291e+04 -1.345579999999999927e+04 -8.319100000000000364e+03 -1.345579999999999927e+04 -6.999589999999999418e+04
-5.562930000000000291e+04 9.027719999999999345e+03 7.035289999999999964e+03 9.027719999999999345e+03 -1.563389999999999964e+04 1.150739999999999964e+04 7.035289999999999964e+03 1.150739999999999964e+04 -1.070179999999999927e+04
-2.763359999999999854e+04 8.641709999999999127e+03 5.120979999999999563e+03 8.641709999999999127e+03 -5.533230000000000291e+04 -1.600760000000000036e+04 5.120979999999999563e+03 -1.600760000000000036e+04 -3.698400000000000000e+04
-4.782000000000000000e+04 7.936180000000000291e+03 -5.938310000000000400e+03 7.936180000000000291e+03 -4.557190000000000146e+04 1.464050000000000000e+04 -5.938310000000000400e+03 1.464050000000000000e+04 -4.507019999999999709e+04
-7.661830000000000291e+04 9.500969999999999345e+03 -4.517689999999999600e+03 9.500969999999999345e+03 -7.862880000000000291e+04 -1.012879999999999927e+04 -4.517689999999999600e+03 -1.012879999999999927e+04 -4.690859999999999854e+04
-2.443320000000000073e+04 -4.441039999999999964e+03 -1.797069999999999936e+03 -4.441039999999999964e+03 -5.226559999999999854e+04 -1.189660000000000082e+03 -1.797069999999999936e+03 -1.189660000000000082e+03 -3.948140000000000146e+04
-5.730280000000000291e+04 1.109640000000000100e+03 7.571210000000000036e+03 1.109640000000000100e+03 -5.203419999999999709e+04 4.030320000000000164e+03 7.571210000000000036e+03 4.030320000000000164e+03 -6.636389999999999418e+04
-7.043900000000000000e+04 -3.741539999999999964e+03 -5.404600000000000364e+03 -3.741539999999999964e+03 -3.920400000000000000e+04 -7.780689999999999600e+03 -5.404600000000000364e+03 -7.780689999999999600e+03 -3.834840000000000146e+04
-3.245700000000000000e+04 -6.357270000000000437e+03 -9.572760000000000218e+03 -6.357270000000000437e+03 -5.506930000000000291e+04 5.986119999999999891e+03 -9.572760000000000218e+03 5.986119999999999891e+03 -4.224409999999999854e+04
-4.385690000000000146e+04 2.985699999999999818e+03 -1.139729999999999927e+04 2.985699999999999818e+03 -3.798240000000000146e+04 7.261689999999999600e+03 -1.139729999999999927e+04 7.261689999999999600e+03 -1.995509999999999854e+04
-3.088740000000000146e+04 -6.366100000000000364e+03 7.387180000000000291e+03 -6.366100000000000364e+03 -2.399909999999999854e+04 8.741750000000000000e+03 7.387180000000000291e+03 8.741750000000000000e+03 -1.996479999999999927e+04
-1.923700000000000000e+04 1.498210000000000036e+04 6.618239999999999782e+03 1.498210000000000036e+04 -1.738150000000000000e+04 -5.128039999999999964e+03 6.618239999999999782e+03 -5.128039999999999964e+03 -4.547390000000000146e+04
-4.928519999999999709e+04 -2.850070000000000164e+03 -1.125079999999999927e+04 -2.850070000000000164e+03 -4.517080000000000291e+04 8.066369999999999891e+03 -1.125079999999999927e+04 8.066369999999999891e+03 -3.355359999999999854e+04
-3.313980000000000291e+04 -1.553900000000000091e+03 -2.392420000000000073e+03 -1.553900000000000091e+03 -3.050200000000000000e+04 1.706450000000000045e+03 -2.392420000000000073e+03 1.706450000000000045e+03 -2.849200000000000000e+04
-2.617920000000000073e+04 -1.438720000000000141e+02 3.905570000000000164e+03 -1.438720000000000141e+02 -3.280350000000000000e+04 9.181600000000000364e+03 3.905570000000000164e+03 9.181600000000000364e+03 -2.540390000000000146e+04
-4.093069999999999709e+04 1.174570000000000073e+04 1.172660000000000036e+04 1.174570000000000073e+04 -3.558850000000000000e+04 -1.048220000000000073e+04 1.172660000000000036e+04 -1.048220000000000073e+04 -3.020200000000000000e+04
-4.083750000000000000e+04 6.658550000000000182e+03 1.761409999999999854e+04 6.658550000000000182e+03 -3.669830000000000291e+04 1.412250000000000000e+04 1.761409999999999854e+04 1.412250000000000000e+04 -3.544570000000000164e+03
-5.334900000000000000e+04 -1.053289999999999935e+02 5.615109999999999673e+02 -1.053289999999999935e+02 -2.324279999999999927e+04 -4.062239999999999782e+03 5.615109999999999673e+02 -4.062239999999999782e+03 -4.563659999999999854e+04
-4.813019999999999709e+04 1.001139999999999964e+04 -4.402500000000000000e+03 1.001139999999999964e+04 -2.261840000000000146e+04 -1.039379999999999927e+04 -4.402500000000000000e+03 -1.039379999999999927e+04 -3.510509999999999854e+04
-3.092950000000000000e+04 -4.280399999999999636e+03 -1.442390000000000100e+03 -4.280399999999999636e+03 -1.809300000000000000e+04 -5.697930000000000291e+03 -1.442390000000000100e+03 -5.697930000000000291e+03 -2.969729999999999927e+04
-1.016210000000000036e+04 6.634279999999999745e+03 -6.857880000000000109e+03 6.634279999999999745e+03 -7.349369999999999891e+03 -1.536179999999999927e+04 -6.857880000000000109e+03 -1.536179999999999927e+04 -2.033000000000000000e+04
-3.617390000000000146e+04 -2.544470000000000073e+04 1.480110000000000036e+04 -2.544470000000000073e+04 -3.377380000000000291e+04 1.087579999999999927e+04 1.480110000000000036e+04 1.087579999999999927e+04 -3.657309999999999854e+04
-2.570320000000000073e+04 1.637870000000000073e+04 7.007199999999999818e+03 1.637870000000000073e+04 -1.806559999999999854e+04 5.235569999999999709e+03 7.007199999999999818e+03 5.235569999999999709e+03 -2.336329999999999927e+04
-1.362179999999999927e+04 1.002810000000000036e+04 1.208920000000000073e+04 1.002810000000000036e+04 -3.382669999999999709e+04 4.951359999999999673e+03 1.208920000000000073e+04 4.951359999999999673e+03 -2.872300000000000000e+04
-1.294150000000000000e+04 -1.977070000000000073e+04 -1.409900000000000000e+04 -1.977070000000000073e+04 -7.038090000000000146e+03 4.051349999999999909e+02 -1.409900000000000000e+04 4.051349999999999909e+02 -1.008179999999999927e+04
-5.188480000000000291e+04 1.570079999999999927e+03 -5.691609999999999445e+02 1.570079999999999927e+03 -6.146300000000000000e+04 5.488159999999999854e+03 -5.691609999999999445e+02 5.488159999999999854e+03 -3.381690000000000146e+04
-3.110379999999999927e+04 4.601539999999999964e+02 -1.490349999999999909e+03 4.601539999999999964e+02 -2.680559999999999854e+04 2.598960000000000036e+03 -1.490349999999999909e+03 2.598960000000000036e+03 -6.346250000000000000e+04
-5.442219999999999709e+04 -1.170579999999999927e+04 -1.169689999999999964e+04 -1.170579999999999927e+04 -7.552750000000000000e+04 -2.619849999999999909e+03 -1.169689999999999964e+04 -2.619849999999999909e+03 -3.283169999999999709e+04
-3.332509999999999854e+04 -1.350009999999999991e+03 -9.856680000000000291e+03 -1.350009999999999991e+03 -6.561189999999999418e+04 -2.109380000000000109e+03 -9.856680000000000291e+03 -2.109380000000000109e+03 -5.417619999999999709e+04
-3.628259999999999854e+04 -6.119250000000000000e+03 2.371320000000000073e+04 -6.119250000000000000e+03 -2.863440000000000146e+04 1.248800000000000000e+04 2.371320000000000073e+04 1.248800000000000000e+04 -3.017690000000000146e+04
-4.517880000000000291e+04 2.710019999999999982e+03 1.258300000000000000e+04 2.710019999999999982e+03 -2.726650000000000000e+04 -1.342069999999999936e+03 1.258300000000000000e+04 -1.342069999999999936e+03 -4.940250000000000000e+04
-5.630869999999999709e+04 8.742630000000000337e+02 5.565100000000000364e+03 8.742630000000000337e+02 -6.182259999999999854e+04 3.178420000000000073e+03 5.565100000000000364e+03 3.178420000000000073e+03 -4.856009999999999854e+04
-4.033290000000000146e+04 3.213869999999999891e+03 6.051880000000000109e+03 3.213869999999999891e+03 -3.461730000000000291e+04 -1.044539999999999964e+04 6.051880000000000109e+03 -1.044539999999999964e+04 -4.107450000000000000e+04
-2.611400000000000000e+04 -1.925500000000000000e+03 1.053539999999999964e+04 -1.925500000000000000e+03 -2.033890000000000146e+04 4.411770000000000437e+03 1.053539999999999964e+04 4.411770000000000437e+03 -4.062300000000000000e+04
-2.636790000000000146e+04 1.269229999999999927e+04 1.319410000000000082e+03 1.269229999999999927e+04 -3.824290000000000146e+04 -1.173100000000000000e+04 1.319410000000000082e+03 -1.173100000000000000e+04 -1.959100000000000000e+04
-4.675390000000000146e+04 -2.383150000000000091e+03 1.717540000000000146e+04 -2.383150000000000091e+03 -4.528659999999999854e+04 -5.803410000000000082e+02 1.717540000000000146e+04 -5.803410000000000082e+02 -4.952909999999999854e+04
-6.360480000000000291e+04 -8.549919999999999618e+02 -7.768920000000000073e+03 -8.549919999999999618e+02 -4.087400000000000000e+04 1.225170000000000073e+04 -7.768920000000000073e+03 1.225170000000000073e+04 -7.291439999999999418e+04
-5.540150000000000000e+04 1.115610000000000036e+04 1.248770000000000073e+04 1.115610000000000036e+04 -1.483139999999999964e+04 1.796250000000000000e+04 1.248770000000000073e+04 1.796250000000000000e+04 -3.253970000000000073e+04
-1.962450000000000000e+04 7.646090000000000146e+03 2.614699999999999818e+03 7.646090000000000146e+03 -1.696229999999999927e+04 -1.537820000000000073e+04 2.614699999999999818e+03 -1.537820000000000073e+04 -1.677440000000000146e+04
-2.425429999999999927e+04 -5.032119999999999891e+03 -9.534950000000000728e+03 -5.032119999999999891e+03 -1.607070000000000073e+04 9.356069999999999709e+01 -9.534950000000000728e+03 9.356069999999999709e+01 -2.190340000000000146e+04
-4.251630000000000291e+04 -1.284139999999999964e+04 -4.172420000000000073e+03 -1.284139999999999964e+04 -4.421980000000000291e+04 -6.369920000000000073e+03 -4.172420000000000073e+03 -6.369920000000000073e+03 -3.331130000000000291e+04
-3.930390000000000146e+04 -8.571250000000000000e+03 -7.079869999999999891e+03 -8.571250000000000000e+03 -3.245809999999999854e+04 5.508310000000000400e+03 -7.079869999999999891e+03 5.508310000000000400e+03 -3.883959999999999854e+04
-1.754659999999999854e+04 8.193329999999999927e+03 -1.709190000000000146e+04 8.193329999999999927e+03 -7.954130000000000109e+03 -8.366030000000000655e+03 -1.709190000000000146e+04 -8.366030000000000655e+03 -2.775850000000000000e+04
-3.000740000000000146e+04 4.278189999999999600e+03 5.477420000000000073e+03 4.278189999999999600e+03 -2.011729999999999927e+04 -7.983399999999999636e+03 5.477420000000000073e+03 -7.983399999999999636e+03 -3.855830000000000291e+04
-2.960979999999999927e+04 1.206339999999999964e+04 -1.459609999999999900e+03 1.206339999999999964e+04 -4.017650000000000000e+04 1.394579999999999984e+02 -1.459609999999999900e+03 1.394579999999999984e+02 -2.769709999999999854e+04
-3.986909999999999854e+04 -6.447740000000000009e+02 2.179200000000000000e+04 -6.447740000000000009e+02 -3.771219999999999709e+04 -4.302319999999999709e+03 2.179200000000000000e+04 -4.302319999999999709e+03 -3.865850000000000000e+04
-3.817469999999999709e+04 -7.200350000000000364e+03 1.199860000000000036e+04 -7.200350000000000364e+03 -3.920959999999999854e+04 -2.186079999999999927e+04 1.199860000000000036e+04 -2.186079999999999927e+04 -5.144590000000000146e+04
-2.472579999999999927e+04 6.867000000000000455e+02 -3.638420000000000073e+03 6.867000000000000455e+02 -4.718809999999999854e+04 -2.998059999999999832e+02 -3.638420000000000073e+03 -2.998059999999999832e+02 -5.403759999999999854e+04
-3.920630000000000291e+04 -7.796720000000000539e+01 9.621450000000000728e+03 -7.796720000000000539e+01 -4.496530000000000291e+04 5.156869999999999891e+03 9.621450000000000728e+03 5.156869999999999891e+03 -1.874509999999999854e+04
-5.214390000000000327e+03 3.764489999999999782e+03 1.148619999999999891e+03 3.764489999999999782e+03 -1.234629999999999927e+04 -6.458920000000000073e+03 1.148619999999999891e+03 -6.458920000000000073e+03 6.265479999999999563e+03
-1.592089999999999964e+04 1.021929999999999927e+04 1.403400000000000000e+04 1.021929999999999927e+04 -3.423059999999999854e+04 -3.071469999999999800e+03 1.403400000000000000e+04 -3.071469999999999800e+03 -4.934340000000000146e+04
-2.455700000000000000e+04 -4.252159999999999854e+03 -4.843970000000000255e+03 -4.252159999999999854e+03 -4.459530000000000291e+04 2.781670000000000073e+03 -4.843970000000000255e+03 2.781670000000000073e+03 -2.191809999999999854e+04
-7.613430000000000291e+03 -3.000710000000000036e+03 -1.426589999999999964e+04 -3.000710000000000036e+03 -3.408950000000000000e+04 -1.370720000000000073e+04 -1.426589999999999964e+04 -1.370720000000000073e+04 -2.766220000000000073e+04
-5.827740000000000146e+04 2.480579999999999927e+04 1.565380000000000109e+03 2.480579999999999927e+04 -3.824340000000000146e+04 1.491070000000000073e+04 1.565380000000000109e+03 1.491070000000000073e+04 -3.556100000000000000e+04
-4.641390000000000146e+04 9.323850000000000364e+03 1.109270000000000073e+04 9.323850000000000364e+03 -5.923359999999999854e+04 -4.898109999999999673e+03 1.109270000000000073e+04 -4.898109999999999673e+03 -4.257940000000000146e+04
-5.248019999999999709e+04 -1.474019999999999868e+02 1.802069999999999936e+03 -1.474019999999999868e+02 -3.123959999999999854e+04 -3.189150000000000091e+03 1.802069999999999936e+03 -3.189150000000000091e+03 -2.143509999999999854e+04
-5.448419999999999709e+04 -7.022350000000000364e+03 6.621920000000000073e+03 -7.022350000000000364e+03 -1.791759999999999854e+04 -2.092759999999999854e+04 6.621920000000000073e+03 -2.092759999999999854e+04 -4.941559999999999854e+04
-4.405550000000000000e+04 1.463430000000000064e+03 -5.622469999999999573e+02 1.463430000000000064e+03 -3.179150000000000000e+04 -1.562920000000000073e+04 -5.622469999999999573e+02 -1.562920000000000073e+04 -3.647630000000000291e+04
-2.604000000000000000e+04 -1.288550000000000000e+04 -4.711579999999999927e+03 -1.288550000000000000e+04 -2.440459999999999854e+04 1.961539999999999964e+03 -4.711579999999999927e+03 1.961539999999999964e+03 -3.886740000000000146e+04
-1.561300000000000000e+04 -3.031900000000000091e+03 -9.413440000000000509e+02 -3.031900000000000091e+03 -3.960190000000000146e+04 -1.318089999999999975e+02 -9.413440000000000509e+02 -1.318089999999999975e+02 -1.032929999999999927e+04
-1.417220000000000073e+04 7.236539999999999964e+03 9.709860000000000582e+03 7.236539999999999964e+03 -3.677800000000000000e+04 -1.121600000000000000e+04 9.709860000000000582e+03 -1.121600000000000000e+04 -3.044809999999999854e+04
-3.856140000000000146e+04 5.218210000000000036e+03 7.140329999999999927e+03 5.218210000000000036e+03 -4.977659999999999854e+04 8.074460000000000036e+03 7.140329999999999927e+03 8.074460000000000036e+03 -4.274380000000000291e+04
-3.544300000000000000e+04 -5.533319999999999709e+03 -9.054500000000000455e+02 -5.533319999999999709e+03 -5.384800000000000000e+04 8.127720000000000482e+02 -9.054500000000000455e+02 8.127720000000000482e+02 -5.098400000000000000e+04
-6.327719999999999709e+04 -6.854789999999999964e+03 8.862229999999999563e+03 -6.854789999999999964e+03 -5.262019999999999709e+04 7.263159999999999854e+03 8.862229999999999563e+03 7.263159999999999854e+03 -6.242630000000000291e+04
-5.970569999999999709e+04 7.227119999999999891e+03 -4.020170000000000073e+03 7.227119999999999891e+03 -4.807469999999999709e+04 2.684130000000000109e+03 -4.020170000000000073e+03 2.684130000000000109e+03 -4.596109999999999854e+04
-1.707500000000000000e+04 -7.544140000000000327e+03 5.489630000000000109e+03 -7.544140000000000327e+03 -1.716459999999999854e+04 4.510329999999999927e+03 5.489630000000000109e+03 4.510329999999999927e+03 -4.223150000000000000e+04
-4.476109999999999854e+04 -6.035250000000000000e+03 4.035610000000000127e+03 -6.035250000000000000e+03 -5.650950000000000000e+04 -5.813560000000000400e+03 4.035610000000000127e+03 -5.813560000000000400e+03 -3.516900000000000000e+04
-2.543029999999999927e+04 -2.679429999999999836e+03 1.764270000000000073e+04 -2.679429999999999836e+03 -2.252390000000000146e+04 -6.838319999999999709e+03 1.764270000000000073e+04 -6.838319999999999709e+03 -2.060720000000000073e+04
-2.047829999999999927e+04 -2.322129999999999927e+04 8.391479999999999563e+03 -2.322129999999999927e+04 -4.199900000000000000e+04 -2.535409999999999854e+03 8.391479999999999563e+03 -2.535409999999999854e+03 -3.954900000000000000e+04
-4.019450000000000000e+04 -2.237659999999999854e+03 1.170010000000000036e+04 -2.237659999999999854e+03 -5.969480000000000291e+04 -7.053239999999999782e+03 1.170010000000000036e+04 -7.053239999999999782e+03 -7.037060000000000582e+04
-3.382030000000000291e+04 7.998560000000000400e+03 1.056939999999999964e+04 7.998560000000000400e+03 -4.368000000000000000e+04 -1.408559999999999945e+03 1.056939999999999964e+04 -1.408559999999999945e+03 -1.505189999999999964e+04
-6.829019999999999709e+04 -6.954680000000000291e+03 1.913829999999999927e+04 -6.954680000000000291e+03 -4.536409999999999854e+04 7.773189999999999600e+03 1.913829999999999927e+04 7.773189999999999600e+03 -5.943619999999999709e+04
-4.176280000000000291e+04 4.486789999999999736e+02 3.535150000000000091e+03 4.486789999999999736e+02 -2.872900000000000000e+04 -1.559679999999999927e+04 3.535150000000000091e+03 -1.559679999999999927e+04 -3.074650000000000000e+04
-5.621040000000000146e+04 7.706109999999999673e+03 -3.982210000000000036e+03 7.706109999999999673e+03 -4.622630000000000291e+04 -1.168820000000000073e+04 -3.982210000000000036e+03 -1.168820000000000073e+04 -2.838479999999999927e+04
-5.313780000000000291e+04 9.723840000000000146e+02 -5.384010000000000218e+03 9.723840000000000146e+02 -4.616350000000000000e+04 -1.483550000000000000e+04 -5.384010000000000218e+03 -1.483550000000000000e+04 -6.107850000000000000e+04
-4.173319999999999709e+04 -2.223790000000000146e+04 2.327539999999999964e+03 -2.223790000000000146e+04 -4.110930000000000291e+04 3.673290000000000077e+02 2.327539999999999964e+03 3.673290000000000077e+02 -6.018319999999999709e+04
-5.684459999999999854e+04 -5.434460000000000036e+03 1.632900000000000091e+03 -5.434460000000000036e+03 -6.135959999999999854e+04 6.427149999999999636e+03 1.632900000000000091e+03 6.427149999999999636e+03 -4.780230000000000291e+04
-6.040450000000000000e+04 5.672480000000000473e+02 -1.444260000000000036e+04 5.672480000000000473e+02 -3.663219999999999709e+04 -4.021789999999999964e+03 -1.444260000000000036e+04 -4.021789999999999964e+03 -4.188409999999999854e+04
-1.407510000000000036e+04 -2.411100000000000136e+02 1.910650000000000000e+04 -2.411100000000000136e+02 -1.741479999999999927e+04 -1.004370000000000073e+04 1.910650000000000000e+04 -1.004370000000000073e+04 -3.716890000000000146e+04
-4.680609999999999854e+04 -8.269969999999999345e+03 6.321520000000000437e+03 -8.269969999999999345e+03 -4.425850000000000000e+04 -9.701479999999999563e+03 6.321520000000000437e+03 -9.701479999999999563e+03 -6.243950000000000000e+04
-5.737490000000000146e+04 1.007570000000000073e+04 1.699509999999999854e+04 1.007570000000000073e+04 -1.869600000000000000e+04 -3.150170000000000073e+03 1.699509999999999854e+04 -3.150170000000000073e+03 -3.224920000000000073e+04
-5.051750000000000000e+04 3.525409999999999854e+04 2.594690000000000146e+04 3.525409999999999854e+04 -7.005080000000000291e+04 -1.369189999999999964e+04 2.594690000000000146e+04 -1.369189999999999964e+04 -4.346109999999999854e+04
-2.575429999999999927e+04 5.894029999999999745e+03 5.163489999999999782e+03 5.894029999999999745e+03 -3.155550000000000000e+04 6.167359999999999673e+03 5.163489999999999782e+03 6.167359999999999673e+03 -5.700390000000000146e+04
-3.960040000000000146e+04 -9.648370000000000800e+03 -9.657049999999999272e+03 -9.648370000000000800e+03 -4.128340000000000146e+04 1.353829999999999927e+03 -9.657049999999999272e+03 1.353829999999999927e+03 -4.215530000000000291e+04
-3.215159999999999854e+04 -1.127889999999999964e+04 -1.531250000000000000e+03 -1.127889999999999964e+04 -1.081100000000000000e+04 -1.994370000000000073e+04 -1.531250000000000000e+03 -1.994370000000000073e+04 -1.195050000000000000e+04
-4.158600000000000000e+04 6.668699999999999818e+03 -2.248550000000000182e+03 6.668699999999999818e+03 -5.126040000000000146e+04 -1.174539999999999964e+04 -2.248550000000000182e+03 -1.174539999999999964e+04 -4.465400000000000000e+04
-2.929740000000000146e+04 4.977550000000000182e+03 9.380780000000000655e+03 4.977550000000000182e+03 -4.356500000000000000e+04 -8.911799999999999500e+02 9.380780000000000655e+03 -8.911799999999999500e+02 -5.293730000000000291e+04
-6.218090000000000146e+04 -1.003089999999999964e+04 8.809860000000000582e+03 -1.003089999999999964e+04 -3.760980000000000291e+04 -1.365599999999999909e+03 8.809860000000000582e+03 -1.365599999999999909e+03 -7.585289999999999418e+04
-2.119909999999999854e+04 6.484079999999999927e+03 -6.505119999999999436e+02 6.484079999999999927e+03 -3.867790000000000146e+04 2.790789999999999964e+03 -6.505119999999999436e+02 2.790789999999999964e+03 -5.549659999999999854e+04
-3.031150000000000000e+04 6.442010000000000218e+03 7.994140000000000327e+03 6.442010000000000218e+03 4.023399999999999750e+02 1.631130000000000109e+03 7.994140000000000327e+03 1.631130000000000109e+03 -1.291050000000000000e+04
-4.838759999999999854e+04 -1.576849999999999909e+03 -1.544930000000000064e+03 -1.576849999999999909e+03 -3.544669999999999709e+04 7.912649999999999636e+03 -1.544930000000000064e+03 7.912649999999999636e+03 -4.170140000000000146e+04
-2.426559999999999854e+04 1.748779999999999927e+04 -1.269920000000000073e+04 1.748779999999999927e+04 -4.222909999999999854e+04 1.684680000000000064e+03 -1.269920000000000073e+04 1.684680000000000064e+03 -3.043940000000000146e+04
-2.470000000000000000e+04 1.367810000000000036e+04 3.571779999999999973e+02 1.367810000000000036e+04 -4.152400000000000000e+04 -3.899239999999999782e+03 3.571779999999999973e+02 -3.899239999999999782e+03 -3.223840000000000146e+04
-4.831819999999999709e+04 -5.360909999999999854e+03 -5.593489999999999782e+03 -5.360909999999999854e+03 -3.968719999999999709e+04 -1.282630000000000109e+03 -5.593489999999999782e+03 -1.282630000000000109e+03 -6.224830000000000291e+04
-2.763600000000000000e+04 -5.386649999999999636e+03 -8.608020000000000437e+03 -5.386649999999999636e+03 -3.538119999999999709e+04 -9.390930000000000291e+03 -8.608020000000000437e+03 -9.390930000000000291e+03 -4.599640000000000146e+04
-3.983980000000000291e+04 2.563059999999999945e+03 -6.072770000000000437e+03 2.563059999999999945e+03 -5.069840000000000146e+04 7.609900000000000091e+02 -6.072770000000000437e+03 7.609900000000000091e+02 -4.883309999999999854e+04
-3.322640000000000146e+04 -2.693650000000000000e+04 2.636179999999999950e+02 -2.693650000000000000e+04 -6.571700000000000000e+04 -2.882429999999999836e+03 2.636179999999999950e+02 -2.882429999999999836e+03 -2.258870000000000073e+04
-3.849040000000000146e+04 -7.503980000000000246e+02 3.551480000000000018e+03 -7.503980000000000246e+02 -4.746480000000000291e+04 -6.531149999999999636e+03 3.551480000000000018e+03 -6.531149999999999636e+03 -4.386259999999999854e+04
-6.199930000000000291e+04 -5.454470000000000255e+03 7.222119999999999891e+03 -5.454470000000000255e+03 -3.348650000000000000e+04 -1.625250000000000000e+03 7.222119999999999891e+03 -1.625250000000000000e+03 -4.969980000000000291e+04
-3.955190000000000146e+04 -4.525040000000000191e+02 -3.277570000000000164e+03 -4.525040000000000191e+02 -3.157379999999999927e+04 -3.843489999999999782e+03 -3.277570000000000164e+03 -3.843489999999999782e+03 -3.198859999999999854e+04
-4.288319999999999709e+04 1.397760000000000036e+04 -1.202489999999999964e+04 1.397760000000000036e+04 -4.524280000000000291e+04 -8.741299999999999272e+03 -1.202489999999999964e+04 -8.741299999999999272e+03 -4.275080000000000291e+04
-4.795709999999999854e+04 -1.187839999999999964e+04 -1.703420000000000073e+04 -1.187839999999999964e+04 -5.782240000000000146e+04 4.481789999999999964e+03 -1.703420000000000073e+04 4.481789999999999964e+03 -4.517519999999999709e+04
-4.428450000000000000e+04 5.436079999999999927e+03 -4.085039999999999964e+03 5.436079999999999927e+03 -4.874190000000000146e+04 7.858510000000000218e+03 -4.085039999999999964e+03 7.858510000000000218e+03 -3.360480000000000291e+04
-3.096809999999999854e+04 -5.133039999999999964e+03 8.531229999999999563e+03 -5.133039999999999964e+03 -1.297260000000000036e+04 3.206949999999999790e+01 8.531229999999999563e+03 3.206949999999999790e+01 -1.988250000000000000e+04
-2.564340000000000146e+04 -7.583419999999999845e+02 9.524360000000000582e+03 -7.583419999999999845e+02 -3.663740000000000146e+04 -3.588989999999999782e+03 9.524360000000000582e+03 -3.588989999999999782e+03 -3.428659999999999854e+04
-4.949640000000000146e+04 1.606420000000000073e+03 -1.325350000000000000e+04 1.606420000000000073e+03 -3.806169999999999709e+04 1.649570000000000073e+04 -1.325350000000000000e+04 1.649570000000000073e+04 -4.960919999999999709e+04
-5.662409999999999854e+04 -1.292670000000000073e+04 6.203250000000000000e+03 -1.292670000000000073e+04 -2.616290000000000146e+04 -3.633420000000000073e+03 6.203250000000000000e+03 -3.633420000000000073e+03 -3.113390000000000146e+04