-3.020775400000000081e+04
-3.020839809999999852e+04
-3.021114340000000084e+04
-3.021071359999999913e+04
-3.020666430000000037e+04
-3.020901719999999841e+04
-3.020658480000000054e+04
-3.021273359999999957e+04
-3.020348800000000119e+04
-3.020855259999999907e+04
-3.020895239999999831e+04
-3.021008309999999983e+04
-3.020964270000000033e+04
-3.020728649999999834e+04
-3.020792069999999876e+04
-3.020735520000000179e+04
-3.020737039999999979e+04
-3.021016040000000066e+04
-3.020926659999999902e+04
-3.020922420000000056e+04
-3.020800159999999960e+04
-3.020860350000000108e+04
-3.020598849999999948e+04
-3.020936200000000099e+04
-3.021024559999999838e+04
-3.020727300000000105e+04
-3.020686040000000139e+04
-3.020874039999999877e+04
-3.020310259999999835e+04
-3.020573559999999998e+04
-3.021057300000000032e+04
-3.020990190000000075e+04
-3.021126039999999921e+04
-3.020907470000000103e+04
-3.020989020000000164e+04
-3.020695070000000123e+04
-3.021026970000000074e+04
-3.020564259999999922e+04
-3.021043200000000070e+04
-3.020505210000000079e+04
-3.020921740000000136e+04
-3.020581090000000040e+04
-3.020796949999999924e+04
-3.020636019999999917e+04
-3.020993990000000122e+04
-3.020828700000000026e+04
-3.021029639999999927e+04
-3.020902379999999903e+04
-3.020499049999999988e+04
-3.020893879999999990e+04
-3.021116440000000148e+04
-3.020861490000000049e+04
-3.021060570000000007e+04
-3.020788490000000093e+04
-3.020860889999999927e+04
-3.020972889999999825e+04
-3.020800639999999839e+04
-3.020959730000000127e+04
-3.020950999999999840e+04
-3.021181230000000141e+04
-3.021158629999999903e+04
-3.020595509999999922e+04
-3.020716219999999885e+04
-3.020666170000000056e+04
-3.020334779999999955e+04
-3.021020850000000064e+04
-3.020711950000000070e+04
-3.020954690000000119e+04
-3.021120279999999912e+04
-3.020121819999999934e+04
-3.020866319999999905e+04
-3.020923670000000129e+04
-3.020970160000000033e+04
-3.020733199999999852e+04
-3.020873579999999856e+04
-3.020541050000000178e+04
-3.020942829999999958e+04
-3.020849590000000171e+04
-3.020956820000000153e+04
-3.020706989999999860e+04
-3.021080519999999888e+04
-3.021054709999999977e+04
-3.020602390000000014e+04
-3.020915659999999843e+04
-3.020734080000000176e+04
-3.020761070000000109e+04
-3.020925920000000042e+04
-3.020487830000000031e+04
-3.020789789999999994e+04
-3.020319429999999920e+04
-3.020970420000000013e+04
-3.021124230000000171e+04
-3.020745990000000165e+04
-3.020475010000000111e+04
-3.020621169999999984e+04
-3.020754839999999967e+04
-3.020595390000000043e+04
-3.020501369999999952e+04
-3.020429179999999906e+04
-3.020758620000000155e+04
-3.021232440000000133e+04
-3.020600660000000062e+04
-3.020665559999999823e+04
-3.020780319999999847e+04
-3.021000539999999819e+04
-3.020956529999999839e+04
-3.020486820000000080e+04
-3.021067819999999847e+04
-3.020980640000000130e+04
-3.020891289999999935e+04
-3.020852620000000024e+04
-3.020883190000000104e+04
-3.021119299999999930e+04
-3.021052219999999943e+04
-3.020330519999999888e+04
-3.020817030000000159e+04
-3.021011070000000109e+04
-3.020850100000000020e+04
-3.020806840000000011e+04
-3.020939159999999902e+04
-3.020790060000000085e+04
-3.020890260000000126e+04
-3.020746840000000157e+04
-3.020606810000000041e+04
-3.020729349999999977e+04
-3.020649460000000181e+04
-3.020798470000000088e+04
-3.020999469999999928e+04
-3.021110280000000057e+04
-3.020748819999999978e+04
-3.021227209999999832e+04
-3.020925409999999829e+04
-3.020851589999999851e+04
-3.020689210000000094e+04
-3.021108740000000034e+04
-3.021070369999999821e+04
-3.020849220000000059e+04
-3.020816279999999824e+04
-3.021016949999999997e+04
-3.020864129999999932e+04
-3.020875400000000081e+04
-3.020478310000000056e+04
-3.020733429999999862e+04
-3.020939140000000043e+04
-3.021115799999999945e+04
-3.020891600000000108e+04
-3.021033320000000094e+04
-3.020901970000000074e+04
-3.020603670000000056e+04
-3.021168630000000121e+04
-3.020627950000000055e+04
-3.021049829999999929e+04
-3.021124810000000070e+04
-3.020551510000000053e+04
-3.020880939999999828e+04
-3.020666609999999855e+04
-3.020646800000000076e+04
-3.020879379999999946e+04
-3.020813629999999830e+04
-3.020833160000000134e+04
-3.020827839999999924e+04
-3.020934930000000168e+04
-3.020480970000000161e+04
-3.020520690000000104e+04
-3.020798559999999998e+04
-3.020924069999999847e+04
-3.020276440000000002e+04
-3.020554950000000099e+04
-3.019975890000000072e+04
-3.020819629999999961e+04
-3.020465309999999954e+04
-3.020714489999999932e+04
-3.020739110000000073e+04
-3.020743850000000020e+04
-3.020991470000000118e+04
-3.020872430000000168e+04
-3.020775470000000132e+04
-3.020699450000000070e+04
-3.020325939999999900e+04
-3.020775570000000153e+04
-3.021087269999999990e+04
-3.020945729999999821e+04
-3.020984579999999914e+04
-3.020995560000000114e+04
-3.021059230000000025e+04
-3.020827470000000176e+04
-3.020853199999999924e+04
-3.020814300000000003e+04
-3.021012779999999839e+04
-3.020912320000000182e+04
-3.020980559999999969e+04
-3.020132509999999820e+04
-3.020758399999999892e+04
-3.020909409999999843e+04
-3.020932400000000052e+04
-3.020792740000000049e+04
-3.020775879999999961e+04
-3.020760329999999885e+04
-3.021151780000000144e+04
-3.020651139999999941e+04
-3.020497149999999965e+04
-3.020711920000000100e+04
-3.020989489999999932e+04
-3.020929079999999885e+04
-3.020809040000000095e+04
-3.020649620000000141e+04
-3.020734839999999895e+04
-3.020786040000000139e+04
-3.020497590000000127e+04
-3.020329469999999856e+04
-3.020869830000000002e+04
-3.020962370000000010e+04
-3.020566570000000138e+04
-3.020994169999999940e+04
-3.020869039999999950e+04
-3.020890360000000146e+04
-3.020790190000000075e+04
-3.020497230000000127e+04
-3.021004569999999876e+04
-3.020676239999999962e+04
-3.020515139999999883e+04
-3.021117190000000119e+04
-3.020741860000000088e+04
-3.020870820000000094e+04
-3.020765559999999823e+04
-3.020577119999999923e+04
-3.020723670000000129e+04
-3.020909619999999995e+04
-3.021272019999999975e+04
-3.021036890000000130e+04
-3.020846800000000076e+04
-3.020682149999999820e+04
-3.020920300000000134e+04
-3.020918240000000151e+04
-3.021057640000000174e+04
-3.020827149999999892e+04
-3.020935080000000016e+04
-3.020671900000000096e+04
-3.021153499999999985e+04
-3.021068330000000060e+04
-3.020810979999999836e+04
-3.021030159999999887e+04
-3.020638899999999921e+04
-3.020874859999999899e+04
-3.020920379999999932e+04
-3.020936999999999898e+04
-3.020509100000000035e+04
-3.021019979999999850e+04
-3.020862410000000091e+04
-3.021203220000000147e+04
-3.020877750000000015e+04
-3.020852620000000024e+04
-3.020971470000000045e+04
-3.021087919999999940e+04
-3.021319940000000133e+04
-3.020665940000000046e+04
-3.021130700000000070e+04
-3.020813950000000114e+04
-3.020443609999999899e+04
-3.020875310000000172e+04
-3.020870469999999841e+04
-3.020429369999999835e+04
-3.021136249999999927e+04
-3.021132379999999830e+04
-3.020683429999999862e+04
-3.020580229999999938e+04
-3.021059899999999834e+04
-3.020732229999999981e+04
-3.020588119999999981e+04
-3.020918130000000019e+04
-3.020817580000000089e+04
-3.020731899999999951e+04
-3.020550330000000031e+04
-3.021067829999999958e+04
-3.021068419999999969e+04
-3.020830180000000109e+04
-3.020416739999999845e+04
-3.020794310000000041e+04
-3.020632070000000022e+04
-3.020449100000000180e+04
-3.021066170000000056e+04
-3.021015919999999824e+04
-3.020876489999999831e+04
-3.021106769999999960e+04
-3.020813249999999971e+04
-3.020698830000000089e+04
-3.020614270000000033e+04
-3.020892290000000139e+04
-3.020825649999999951e+04
-3.020844859999999971e+04
-3.020813629999999830e+04
-3.021281780000000072e+04
-3.020742060000000129e+04
-3.020703059999999823e+04
-3.020446830000000045e+04
-3.020911730000000171e+04
-3.020776480000000083e+04
-3.020901900000000023e+04
-3.021044489999999860e+04
-3.020887320000000182e+04
-3.021163190000000031e+04
-3.020933629999999903e+04
-3.020907340000000113e+04
-3.021070620000000054e+04
-3.021051859999999942e+04
-3.020945060000000012e+04
-3.021230640000000130e+04
-3.020455640000000130e+04
-3.020839709999999832e+04
-3.021408840000000055e+04
-3.020961539999999877e+04
-3.020901659999999902e+04
-3.020999120000000039e+04
-3.021108209999999963e+04
-3.020740239999999903e+04
-3.020646919999999955e+04
-3.021312380000000121e+04
-3.020870179999999891e+04
-3.020991270000000077e+04
-3.020987320000000182e+04
-3.020957519999999931e+04
-3.020769350000000122e+04
-3.020912080000000060e+04
-3.021098600000000079e+04
-3.021076099999999860e+04
-3.021000080000000162e+04
-3.020682749999999942e+04
-3.020723400000000038e+04
-3.020378540000000066e+04
-3.021206179999999949e+04
-3.020990850000000137e+04
-3.020868630000000121e+04
-3.021189970000000176e+04
-3.020858309999999983e+04
-3.021113590000000113e+04
-3.021176259999999820e+04
-3.021163989999999831e+04
-3.020934419999999955e+04
-3.020688179999999920e+04
-3.020567919999999867e+04
-3.020824150000000009e+04
-3.020476009999999951e+04
-3.020544949999999881e+04
-3.020807319999999891e+04
-3.021032070000000022e+04
-3.020703810000000158e+04
-3.021037289999999848e+04
-3.020946540000000095e+04
-3.020379490000000078e+04
-3.021166460000000006e+04
-3.020769120000000112e+04
-3.020914349999999831e+04
-3.020954230000000098e+04
-3.021024490000000151e+04
-3.020853480000000127e+04
-3.020469670000000042e+04
-3.020972399999999834e+04
-3.021539900000000125e+04
-3.020944749999999840e+04
-3.021016330000000016e+04
-3.021086760000000140e+04
-3.021030760000000009e+04
-3.020940120000000024e+04
-3.020840169999999853e+04
-3.020815409999999974e+04
-3.020490869999999995e+04
-3.020722969999999987e+04
-3.020848229999999967e+04
-3.020774279999999999e+04
-3.020826659999999902e+04
-3.020646670000000086e+04
-3.020440239999999903e+04
-3.020797569999999905e+04
-3.021142520000000150e+04
-3.020982110000000102e+04
-3.020647350000000006e+04
-3.021009749999999985e+04
-3.020872049999999945e+04
-3.020796770000000106e+04
-3.020576979999999821e+04
-3.021129950000000099e+04
-3.021226469999999972e+04
-3.020642669999999998e+04
-3.020945520000000033e+04
-3.020891059999999925e+04
-3.020595460000000094e+04
-3.020854579999999987e+04
-3.021254139999999825e+04
-3.020694859999999971e+04
-3.020990100000000166e+04
-3.020941119999999864e+04
-3.021233490000000165e+04
-3.020511010000000169e+04
-3.021273879999999917e+04
-3.021075170000000071e+04
-3.020862280000000101e+04
-3.020399599999999919e+04
-3.021010280000000057e+04
-3.020511829999999827e+04
-3.020765090000000055e+04
-3.021134210000000166e+04
-3.020986929999999847e+04
-3.020871329999999944e+04
-3.021198050000000148e+04
-3.020931390000000101e+04
-3.021093379999999888e+04
-3.021009779999999955e+04
-3.020811209999999846e+04
-3.020647999999999956e+04
-3.020356220000000030e+04
-3.021038920000000144e+04
-3.020806620000000112e+04
-3.020822249999999985e+04
-3.020855909999999858e+04
-3.021099750000000131e+04
-3.020572379999999976e+04
-3.020503589999999895e+04
-3.020941900000000169e+04
-3.021189020000000164e+04
-3.020655319999999847e+04
-3.020998300000000017e+04
-3.020558339999999953e+04
-3.020825349999999889e+04
-3.020555949999999939e+04
-3.020386319999999978e+04
-3.020836290000000008e+04
-3.020738530000000173e+04
-3.020757330000000002e+04
-3.021086999999999898e+04
-3.020840309999999954e+04
-3.020845980000000054e+04
-3.020381989999999860e+04
-3.020683239999999932e+04
-3.020836999999999898e+04
-3.021355700000000070e+04
-3.020834330000000045e+04
-3.020551880000000165e+04
-3.020670360000000073e+04
-3.020858299999999872e+04
-3.020851320000000123e+04
-3.021064960000000065e+04
-3.020853830000000016e+04
-3.020707229999999981e+04
-3.020972759999999835e+04
-3.020783480000000054e+04
-3.020263200000000143e+04
-3.020577569999999832e+04
-3.020900969999999870e+04
-3.020320699999999852e+04
-3.020832749999999942e+04
-3.020609779999999955e+04
-3.020894649999999820e+04
-3.020683729999999923e+04
-3.021201429999999891e+04
-3.020825040000000081e+04
-3.021237580000000162e+04
-3.020489029999999912e+04
-3.020653659999999945e+04
-3.020939870000000155e+04
-3.020915350000000035e+04
-3.020969949999999881e+04
-3.020583030000000144e+04
-3.020706490000000122e+04
-3.020818790000000081e+04
-3.020787500000000000e+04
-3.021079490000000078e+04
-3.020988750000000073e+04
-3.021208780000000115e+04
-3.020718890000000101e+04
-3.021014319999999861e+04
-3.020843230000000040e+04
-3.020975570000000153e+04
-3.020567819999999847e+04
-3.020821440000000075e+04
-3.020674799999999959e+04
-3.020998830000000089e+04
-3.020691440000000148e+04
-3.020937700000000041e+04
-3.021070170000000144e+04
-3.021286549999999988e+04
-3.020884930000000168e+04
-3.020822179999999935e+04
-3.021001399999999921e+04
-3.020715079999999944e+04
-3.020920230000000083e+04
-3.021016149999999834e+04
-3.020628830000000016e+04
-3.020987930000000051e+04
-3.020796319999999832e+04
-3.020807330000000002e+04
-3.021300349999999889e+04
-3.021009760000000097e+04
-3.020834820000000036e+04
-3.020660989999999947e+04
-3.021306769999999960e+04
-3.021287900000000081e+04
-3.020640669999999955e+04
-3.020594819999999891e+04
-3.020987110000000030e+04
-3.020731889999999839e+04
-3.020899190000000090e+04
-3.020848589999999967e+04
-3.020645279999999912e+04
-3.020802110000000175e+04
-3.020860150000000067e+04
-3.020959400000000096e+04
-3.020879839999999967e+04
-3.021275119999999879e+04
-3.020787770000000091e+04
-3.020595999999999913e+04
-3.020773070000000007e+04
-3.020776380000000063e+04
-3.020451380000000063e+04
-3.020746449999999822e+04
-3.021036290000000008e+04
-3.020734460000000036e+04
-3.021315610000000015e+04
-3.021184000000000015e+04
-3.020780559999999969e+04
-3.020765769999999975e+04
-3.021140060000000085e+04
-3.021357029999999941e+04
-3.020685109999999986e+04
-3.020826529999999912e+04
-3.020916909999999916e+04
-3.021307670000000144e+04
-3.020931490000000122e+04
-3.020879530000000159e+04
-3.020697790000000168e+04
-3.020509270000000106e+04
-3.020659370000000126e+04
-3.020866920000000027e+04
-3.020906309999999939e+04
-3.020496759999999995e+04
-3.020638569999999891e+04
-3.020757019999999829e+04
-3.020583399999999892e+04
-3.020948619999999937e+04
-3.020839250000000175e+04
-3.020683810000000085e+04
-3.020495569999999861e+04
-3.020884660000000076e+04
-3.020594759999999951e+04
-3.020963869999999952e+04
-3.020739259999999922e+04
-3.020745650000000023e+04
-3.020881399999999849e+04
-3.021006030000000101e+04
-3.021093560000000070e+04
-3.020696909999999843e+04
-3.021171559999999954e+04
-3.021223010000000068e+04
-3.020768049999999857e+04
-3.020882800000000134e+04
-3.020719619999999850e+04
-3.020707119999999850e+04
-3.020858759999999893e+04
-3.020752809999999954e+04
-3.020686539999999877e+04
-3.021147420000000056e+04
-3.020802110000000175e+04
-3.020828380000000107e+04
-3.020787510000000111e+04
-3.021134999999999854e+04
-3.020197469999999885e+04
-3.020962010000000009e+04
-3.020948630000000048e+04
-3.020670820000000094e+04
-3.020554739999999947e+04
-3.020526429999999891e+04
-3.020701310000000012e+04
-3.020804339999999866e+04
-3.020752419999999984e+04
-3.021042640000000029e+04
-3.020799769999999990e+04
-3.020957730000000083e+04
-3.020843779999999970e+04
-3.020672330000000147e+04
-3.020755010000000038e+04
-3.020682760000000053e+04
-3.020783569999999963e+04
-3.021119499999999971e+04
-3.020977089999999953e+04
-3.020748389999999927e+04
-3.021359449999999924e+04
-3.020818319999999949e+04
-3.021292799999999988e+04
-3.020790179999999964e+04
-3.020960160000000178e+04
-3.020657129999999961e+04
-3.020992079999999987e+04
-3.020862610000000132e+04
-3.020977439999999842e+04
-3.020539210000000094e+04
-3.020406209999999919e+04
-3.020642239999999947e+04
-3.020942610000000059e+04
-3.020921500000000015e+04
-3.020482080000000133e+04
-3.021023479999999836e+04
-3.020989700000000084e+04
-3.020844830000000002e+04
-3.021110139999999956e+04
-3.021037879999999859e+04
-3.020960749999999825e+04
-3.020655879999999888e+04
-3.020672569999999905e+04
-3.020970910000000003e+04
-3.020974610000000030e+04
-3.020827720000000045e+04
-3.020731569999999920e+04
-3.020875869999999850e+04
-3.020847759999999835e+04
-3.020511500000000160e+04
-3.020992099999999846e+04
-3.020460299999999916e+04
-3.021000200000000041e+04
-3.021097260000000097e+04
-3.020635220000000118e+04
-3.020873340000000098e+04
-3.020421630000000005e+04
-3.020875310000000172e+04
-3.021226529999999912e+04
-3.020797560000000158e+04
-3.020681659999999829e+04
-3.020771399999999994e+04
-3.021025839999999880e+04
-3.020747920000000158e+04
-3.021025070000000051e+04
-3.020694120000000112e+04
-3.020891010000000097e+04
-3.020760610000000088e+04
-3.021149520000000120e+04
-3.020853450000000157e+04
-3.020756269999999859e+04
-3.020782920000000013e+04
-3.020946940000000177e+04
-3.020959070000000065e+04
-3.021217280000000028e+04
-3.020377360000000044e+04
-3.020719269999999960e+04
-3.020558929999999964e+04
-3.020834289999999964e+04
-3.021150149999999849e+04
-3.020698440000000119e+04
-3.020928919999999925e+04
-3.020490680000000066e+04
-3.021137659999999960e+04
-3.020967250000000058e+04
-3.021280140000000029e+04
-3.020635280000000057e+04
-3.020840190000000075e+04
-3.020482280000000173e+04
-3.020758810000000085e+04
-3.020354009999999835e+04
-3.020528800000000047e+04
-3.020666949999999997e+04
-3.020917499999999927e+04
-3.020455299999999988e+04
-3.020927059999999983e+04
-3.020572360000000117e+04
-3.020970449999999983e+04
-3.020714370000000054e+04
-3.020831550000000061e+04
-3.021001729999999952e+04
-3.021055819999999949e+04
-3.021094489999999860e+04
-3.020789960000000065e+04
-3.020863690000000133e+04
-3.020981009999999878e+04
-3.020697130000000107e+04
-3.020832749999999942e+04
-3.020971250000000146e+04
-3.020725259999999980e+04
-3.020880350000000180e+04
-3.021142799999999988e+04
-3.020616809999999896e+04
-3.020912090000000171e+04
-3.021161270000000150e+04
-3.020887610000000132e+04
-3.020881739999999991e+04
-3.020862229999999909e+04
-3.020706560000000172e+04
-3.021056850000000122e+04
-3.020799030000000130e+04
-3.020589370000000054e+04
-3.020945790000000125e+04
-3.021160829999999987e+04
-3.020715429999999833e+04
-3.021002160000000003e+04
-3.020757470000000103e+04
-3.020628740000000107e+04
-3.020752929999999833e+04
-3.020663090000000011e+04
-3.021123400000000038e+04
-3.020686349999999948e+04
-3.020966089999999895e+04
-3.020874360000000161e+04
-3.020735220000000118e+04
-3.020621429999999964e+04
-3.021064549999999872e+04
-3.021107410000000164e+04
-3.020851199999999881e+04
-3.021059930000000168e+04
-3.020782379999999830e+04
-3.021192229999999836e+04
-3.021020290000000023e+04
-3.020755429999999978e+04
-3.020711160000000018e+04
-3.020844589999999880e+04
-3.020983480000000054e+04
-3.020800140000000101e+04
-3.020993869999999879e+04
-3.020997989999999845e+04
-3.020746659999999974e+04
-3.020861880000000019e+04
-3.020954430000000139e+04
-3.021027330000000075e+04
-3.020865279999999984e+04
-3.020917819999999847e+04
-3.020873010000000068e+04
-3.020691029999999955e+04
-3.020874480000000040e+04
-3.021117699999999968e+04
-3.020579079999999885e+04
-3.020838940000000002e+04
-3.020083260000000155e+04
-3.020815680000000066e+04
-3.020968530000000101e+04
-3.020952360000000044e+04
-3.020779260000000068e+04
-3.020742150000000038e+04
-3.020764740000000165e+04
-3.020781360000000132e+04
-3.020755429999999978e+04
-3.021021299999999974e+04
-3.020500349999999889e+04
-3.020600460000000021e+04
-3.021075349999999889e+04
-3.020262429999999949e+04
-3.020906769999999960e+04
-3.020662099999999919e+04
-3.020966080000000147e+04
-3.020698619999999937e+04
-3.020792819999999847e+04
-3.020598389999999927e+04
-3.020930809999999838e+04
-3.021082609999999841e+04
-3.020649889999999868e+04
-3.020634019999999873e+04
-3.020549069999999847e+04
-3.020990369999999893e+04
-3.021072239999999874e+04
-3.020821189999999842e+04
-3.020982939999999871e+04
-3.020810160000000178e+04
-3.020496589999999924e+04
-3.020964809999999852e+04
-3.020608480000000054e+04
-3.020857110000000102e+04
-3.021073760000000038e+04
-3.020666990000000078e+04
-3.020694700000000012e+04
-3.020825049999999828e+04
-3.020374610000000030e+04
-3.021224329999999827e+04
-3.020550340000000142e+04
-3.020895300000000134e+04
-3.020865940000000046e+04
-3.020714069999999992e+04
-3.020950219999999899e+04
-3.021197769999999946e+04
-3.020813330000000133e+04
-3.020614679999999862e+04
-3.020989380000000165e+04
-3.020660570000000007e+04
-3.021277430000000095e+04
-3.020886880000000019e+04
-3.021107189999999900e+04
-3.020443730000000141e+04
-3.020763100000000122e+04
-3.020888279999999941e+04
-3.021139479999999821e+04
-3.021109960000000137e+04
-3.021034029999999984e+04
-3.020234249999999884e+04
-3.020602319999999963e+04
-3.020336590000000069e+04
-3.020431699999999910e+04
-3.020815829999999914e+04
-3.020445130000000063e+04
-3.020681120000000010e+04
-3.020849049999999988e+04
-3.020857719999999972e+04
-3.020788520000000062e+04
-3.021140339999999924e+04
-3.021166240000000107e+04
-3.020945769999999902e+04
-3.021054499999999825e+04
-3.020938269999999829e+04
-3.020751829999999973e+04
-3.020882939999999871e+04
-3.020838260000000082e+04
-3.020727539999999863e+04
-3.020587120000000141e+04
-3.020626280000000042e+04
-3.020742380000000048e+04
-3.020977419999999984e+04
-3.020638249999999971e+04
-3.020530600000000049e+04
-3.020526139999999941e+04
-3.021426689999999871e+04
-3.020910139999999956e+04
-3.021022300000000178e+04
-3.020801129999999830e+04
-3.020192420000000129e+04
-3.020786270000000150e+04
-3.020466609999999855e+04
-3.021044580000000133e+04
-3.020867329999999856e+04
-3.021081019999999990e+04
-3.020643409999999858e+04
-3.021327600000000166e+04
-3.020774569999999949e+04
-3.020895000000000073e+04
-3.020768590000000040e+04
-3.020879569999999876e+04
-3.020858380000000034e+04
-3.020750709999999890e+04
-3.020827790000000095e+04
-3.020653199999999924e+04
-3.020785749999999825e+04
-3.020680640000000130e+04
-3.020776559999999881e+04
-3.020879739999999947e+04
-3.020667529999999897e+04
-3.021071220000000176e+04
-3.020983459999999832e+04
-3.020689640000000145e+04
-3.020558910000000105e+04
-3.020462870000000112e+04
-3.021002630000000136e+04
-3.020803359999999884e+04
-3.020945720000000074e+04
-3.020959100000000035e+04
-3.020914719999999943e+04
-3.020899190000000090e+04
-3.020151209999999992e+04
-3.020356009999999878e+04
-3.020907830000000104e+04
-3.020730830000000060e+04
-3.020670679999999993e+04
-3.020648760000000038e+04
-3.020650950000000012e+04
-3.020191530000000057e+04
-3.020306820000000153e+04
-3.020914310000000114e+04
-3.020311620000000039e+04
-3.020908669999999984e+04
-3.020392169999999896e+04
-3.020782809999999881e+04
-3.020685069999999905e+04
-3.020804230000000098e+04
-3.020917829999999958e+04
-3.020835359999999855e+04
-3.021168119999999908e+04
-3.020814579999999842e+04
-3.020715309999999954e+04
-3.020884519999999975e+04
-3.020909639999999854e+04
-3.020882739999999831e+04
-3.020736000000000058e+04
-3.020832340000000113e+04
-3.021006439999999930e+04
-3.020918539999999848e+04
-3.020965980000000127e+04
-3.020877149999999892e+04
-3.020601310000000012e+04
-3.020531699999999910e+04
-3.020805689999999959e+04
-3.021063569999999891e+04
-3.021008130000000165e+04
-3.020941649999999936e+04
-3.020698410000000149e+04
-3.021248449999999866e+04
-3.021022799999999916e+04
-3.020940789999999834e+04
-3.021024629999999888e+04
-3.020553250000000116e+04
-3.020762310000000070e+04
-3.020664689999999973e+04
-3.020659690000000046e+04
-3.020912600000000020e+04
-3.020667669999999998e+04
-3.020860540000000037e+04
-3.020539549999999872e+04
-3.020944589999999880e+04
-3.020538680000000022e+04
-3.021031139999999868e+04
-3.020693579999999929e+04
-3.020625370000000112e+04
-3.020727149999999892e+04
-3.020767420000000129e+04
-3.021114670000000115e+04
-3.020868149999999878e+04
-3.020699250000000029e+04
-3.020697379999999976e+04
-3.020765149999999994e+04
-3.020539020000000164e+04
-3.020626299999999901e+04
-3.021080080000000089e+04
-3.020851499999999942e+04
-3.020763290000000052e+04
-3.020591930000000139e+04
-3.020990769999999975e+04
-3.021009909999999945e+04
-3.020900440000000162e+04
-3.020355299999999988e+04
-3.021133629999999903e+04
-3.020500440000000162e+04
-3.020785220000000118e+04
-3.020761920000000100e+04
-3.020947119999999995e+04
-3.020729839999999967e+04
-3.020751359999999841e+04
-3.020641820000000007e+04
-3.020827760000000126e+04
-3.021025300000000061e+04
-3.020731260000000111e+04
-3.020652630000000136e+04
-3.020622160000000076e+04
-3.020679109999999855e+04
-3.020707249999999840e+04
-3.021190409999999974e+04
-3.021093760000000111e+04
-3.020789110000000073e+04
-3.020773210000000108e+04
-3.021022060000000056e+04
-3.021102990000000136e+04
-3.020911360000000059e+04
-3.020992320000000109e+04
-3.021033410000000003e+04
-3.021068960000000152e+04
-3.020901640000000043e+04
-3.020732869999999821e+04
-3.020900189999999930e+04
-3.020827909999999974e+04
-3.020587459999999919e+04
-3.020990100000000166e+04
-3.021056000000000131e+04
-3.020961709999999948e+04
-3.020916029999999955e+04
-3.020797369999999864e+04
-3.021060800000000017e+04
-3.020939939999999842e+04
-3.020584950000000026e+04
-3.020625609999999870e+04
-3.020677209999999832e+04
-3.020729669999999896e+04
-3.020403039999999964e+04
-3.021294289999999819e+04
-3.020899020000000019e+04
-3.021019940000000133e+04
-3.020541100000000006e+04
-3.020259210000000166e+04
-3.020576380000000063e+04
-3.020672950000000128e+04
-3.020773909999999887e+04
-3.020893649999999980e+04
-3.020850590000000011e+04
-3.020787250000000131e+04
-3.021187329999999929e+04
-3.020802899999999863e+04
-3.020670330000000104e+04
-3.020544989999999962e+04
-3.020623380000000179e+04
-3.020952390000000014e+04
-3.020839779999999882e+04
-3.020871749999999884e+04
-3.020566349999999875e+04
-3.020903870000000097e+04
-3.020404190000000017e+04
-3.020992180000000008e+04
-3.020836390000000029e+04
-3.020786100000000079e+04
-3.020578429999999935e+04
-3.020557979999999952e+04
-3.020794949999999881e+04
-3.021044250000000102e+04
-3.020831610000000001e+04
-3.020514670000000115e+04
-3.020821749999999884e+04
-3.021026829999999973e+04
-3.020977869999999893e+04
-3.020801819999999861e+04
-3.020461809999999969e+04
-3.020770179999999891e+04
-3.020464229999999952e+04
-3.021074859999999899e+04
-3.020867380000000048e+04
