-2.287694724418399872e+01 -2.081241414415899627e+01 6.339556989006999821e+00 -2.081241414415899627e+01 -4.475523661672799136e+01 1.003651160998199821e+01 6.339556989006999821e+00 1.003651160998199821e+01 -2.462843951136799703e+01
-3.294994827639899171e+01 1.163244370869899846e+01 -5.444605896344999252e+00 1.163244370869899846e+01 -6.560990167084098346e+01 -7.015571548270998825e+00 -5.444605896344999252e+00 -7.015571548270998825e+00 -4.098338265537999803e+01
-2.165743234323899813e+01 1.905708088516099608e+01 1.305937216759999764e+01 1.905708088516099608e+01 -4.396207180713700069e+01 -1.852126252710799648e+01 1.305745167169299847e+01 -1.852126252710799648e+01 -2.904365960156099646e+01
-3.708285546826299850e+01 -8.304224301867998648e+00 -5.089314153549999276e+00 -8.304224301867998648e+00 -4.438073991486299974e+01 -8.156346117028999032e+00 -5.089314153549999276e+00 -8.158266612935998197e+00 -5.234503644119199350e+01
-1.843676070719999771e+01 -2.100638423076599537e+01 4.290387856237999564e+00 -2.100638423076599537e+01 -8.870770594432999090e+00 7.885556194141999597e+00 4.290387856237999564e+00 7.885556194141999597e+00 -1.947958998470099701e+01
-4.651441086753999343e+01 4.908787538291999653e+00 6.437502280263998955e+00 4.908787538291999653e+00 -1.013253640533199906e+01 -4.659123070381999909e+00 6.437502280263998955e+00 -4.659123070381999909e+00 -6.448257057343199961e+01
-4.281937674247199510e+01 -2.338587865953899936e+01 -1.164012569232699867e+01 -2.338395816363199486e+01 -4.288467360330999156e+01 -4.931833489175999397e+00 -1.164204618823399784e+01 -4.931833489175999397e+00 -4.293652699279898854e+01
-3.310934943667999164e+01 1.378147862863199791e+01 -3.693113629160999611e+00 1.378147862863199791e+01 -1.530827287469699982e+01 7.203780147156998659e+00 -3.693113629160999611e+00 7.203780147156998659e+00 -5.317661116892298878e+01
-6.778582353347199785e+01 -3.136169816130999433e+00 5.131565063503999546e+00 -3.138090312037999485e+00 -6.122925050697399030e+01 -4.342241245726999210e+00 5.131565063503999546e+00 -4.342241245726999210e+00 -5.945855328071999679e+01
-1.664109703415499908e+01 -5.721157306952998844e+00 -9.562149120952998516e+00 -5.721157306952998844e+00 -2.105439662844099757e+01 1.078934600552599754e+01 -9.562149120952998516e+00 1.078934600552599754e+01 -4.147310911166499636e+01
-4.255818929911999504e+01 -4.772432328894998577e+00 -1.302096224945999747e+00 -4.772432328894998577e+00 -3.125030939870399393e+01 -2.643178516804099587e+01 -1.302096224945999747e+00 -2.643178516804099587e+01 -4.311129212033599600e+01
-4.607077631302299636e+01 6.454786743426998541e+00 -4.630315631776999119e+00 6.454786743426998541e+00 -5.101989426536199090e+01 9.181890931366998743e+00 -4.630315631776999119e+00 9.181890931366998743e+00 -3.311703142030799540e+01
-6.159030373748999665e+01 5.012494317269998945e+00 -7.226826098040998403e+00 5.012494317269998945e+00 -3.815641268027599864e+01 1.273288786340999756e+01 -7.226826098040998403e+00 1.273288786340999756e+01 -3.172083089591899707e+01
-1.592091106902999975e+01 -2.237377731654999646e+00 4.092576777816999467e+00 -2.237377731654999646e+00 -3.756105894910599119e+01 1.443828822882599816e+01 4.092576777816999467e+00 1.444020872473299733e+01 -2.853472818620599583e+01
-3.932215369582499420e+01 6.280021615889999076e+00 8.542365794335998075e+00 6.280021615889999076e+00 -5.222404519905099107e+01 9.404668456578999525e+00 8.542365794335998075e+00 9.404668456578999525e+00 -4.386412651587999534e+01
-3.507593724544799585e+01 -7.624368750789999316e-01 -2.498565175006999706e+00 -7.624368750789999316e-01 -1.885734931083299770e+01 -2.409262115331499743e+01 -2.498565175006999706e+00 -2.409070065740799649e+01 -2.613986979017699497e+01
-5.559067452402199194e+01 1.213177264451899795e+01 8.598060175638998714e+00 1.213177264451899795e+01 -3.843872557860499484e+01 8.592298687917997668e+00 8.598060175638998714e+00 8.592298687917997668e+00 -5.253900652779898905e+01
-4.909939835836198796e+01 1.204727082461099918e+01 -9.736914248489998425e-01 1.204727082461099918e+01 -4.807193304811699619e+01 -7.856748755536998807e+00 -9.736914248489998425e-01 -7.856748755536998807e+00 -4.554648093041199530e+01
-1.252355380954699804e+01 -5.945855328071998791e+00 -4.734022410755000188e+00 -5.943934832164999627e+00 -3.412145077966899720e+01 -4.346082237540999316e+00 -4.734022410755000188e+00 -4.346082237540999316e+00 -2.859426355932299657e+01
-5.173047775095199796e+01 1.117152469101899825e+01 9.836780035653998056e+00 1.117152469101899825e+01 -6.478792942264499288e+01 1.897642005706699564e+01 9.836780035653998056e+00 1.897642005706699564e+01 -4.814107090076899453e+01
-3.553109477540699856e+01 -1.147880403613899780e+01 1.053776104170899863e+01 -1.147688354023199864e+01 -2.863459397336999501e+01 -3.282127505062999440e+00 1.053776104170899863e+01 -3.282127505062999440e+00 -2.881512058862799464e+01
-6.735179145848999127e+00 -1.159019279874499908e+01 1.405610954333299745e+01 -1.159019279874499908e+01 -1.888231575762399927e+01 -3.595168337903999589e+00 1.405610954333299745e+01 -3.595168337903999589e+00 -2.371044246782199494e+01
-4.488006885068299567e+01 7.234508081668998614e+00 1.757253754904999710e+01 7.236428577575999554e+00 -5.906677211569198960e+01 -9.391224985230000044e+00 1.757253754904999710e+01 -9.391224985230000044e+00 -4.719618691452499348e+01
-2.712124319865399613e+01 -2.812374206210799699e+01 -3.633578256043999755e+00 -2.812374206210799699e+01 -2.618596169194499623e+01 -2.529293109518999660e+00 -3.633578256043999755e+00 -2.529293109518999660e+00 -3.508746022089000149e+01
-4.988680168023199002e+01 9.030171754713997245e+00 1.386598044853999845e+00 9.030171754713997245e+00 -4.471106521086699104e+01 -8.621106126522999347e+00 1.386598044853999845e+00 -8.621106126522999347e+00 -4.342049196136299827e+01
-2.246019963236499706e+01 2.792401048777999772e+00 -1.651626480019999832e+01 2.792401048777999772e+00 -4.645871648623699457e+01 1.567124660112000001e+01 -1.651626480019999832e+01 1.567124660112000001e+01 -3.796244259366899598e+01
-6.032469693477699479e+01 1.580760181051699931e+01 1.865761773650499578e+01 1.580760181051699931e+01 -3.055316938446299702e+01 2.110625001792999722e+00 1.865761773650499578e+01 2.110625001792999722e+00 -3.129832179637899259e+01
-4.203197342060199304e+01 -6.950274687432998810e+00 1.844828368264199625e+01 -6.950274687432998810e+00 -1.925681245948899800e+01 -3.587486354275999823e+00 1.845020417854899719e+01 -3.587486354275999823e+00 -1.664877901778299574e+01
-3.896878244893699161e+01 -4.976004895036999720e+00 -1.806802549305599825e+01 -4.976004895036999720e+00 -3.807575185218199465e+01 1.029193756561299899e+01 -1.806802549305599825e+01 1.029193756561299899e+01 -8.544286290242999016e+00
-6.048601859096499567e+01 1.153641891334899938e+01 1.238335760833599863e+01 1.153641891334899938e+01 -3.374695407780399847e+01 6.214724755051999949e+00 1.238335760833599863e+01 6.214724755051999949e+00 -4.449596966928299224e+01
-5.211457693235199429e+01 -1.972349296488999704e+00 1.615137057787000074e+01 -1.972349296488999704e+00 -5.758414927548799511e+01 -1.280586670787599957e+01 1.615137057787000074e+01 -1.280586670787599957e+01 -6.688703144899598385e+01
-2.714236865363099582e+01 -1.237567562470799842e+01 7.290202462971999253e+00 -1.237567562470799842e+01 -2.553299308356499608e+01 -1.918575411092999872e+01 7.292122958878999306e+00 -1.918383361502299778e+01 -2.295376708046399727e+01
-2.720574501856199490e+01 -2.408493916968699722e+01 -6.078369545654998873e+00 -2.408493916968699722e+01 -1.603422032754300020e+01 2.333402527004999616e+00 -6.080290041561998926e+00 2.333402527004999616e+00 -3.645485330667399637e+01
-3.649518372072099481e+01 -6.452866247519999376e+00 -4.351843725261999474e+00 -6.452866247519999376e+00 -3.975042428308599796e+01 1.262726058852499911e+01 -4.351843725261999474e+00 1.262726058852499911e+01 -3.864421864065399603e+01
-3.119269452149399413e+01 8.565411745219998485e-01 6.614187903707999361e+00 8.565411745219998485e-01 -3.116964857060999705e+01 3.852514789441999543e+00 6.614187903707999361e+00 3.852514789441999543e+00 7.092391384550999156e+00
-6.111978224027499351e+01 -7.413114201019999072e-01 -1.170926354497899879e+01 -7.413114201019999072e-01 -2.367779403740299671e+01 -6.497037653380999700e+00 -1.170926354497899879e+01 -6.497037653380999700e+00 -2.269065914120499983e+01
-3.605154916620399774e+01 1.368545383328199883e+01 2.408685966559399461e+01 1.368545383328199883e+01 -2.500677720504699764e+01 -3.768012969533999890e+00 2.408685966559399461e+01 -3.768012969533999890e+00 -2.621668962645699708e+01
-5.420791747098199664e+01 2.640681872124999607e+00 -2.421745338726999819e+00 2.640681872124999607e+00 -5.788758762879398745e+01 -4.712896955777999608e+00 -2.421745338726999819e+00 -4.712896955777999608e+00 -2.396970941526699761e+01
-3.800469350362299537e+01 5.861353508163999138e+00 1.289228902369099927e+01 5.861353508163999138e+00 -1.820630119835999761e+00 -9.823336564304998575e+00 1.289228902369099927e+01 -9.823336564304998575e+00 -1.841371475631599708e+01
-4.750922774736599052e+01 2.525452117704999555e+00 9.252949279925999804e+00 2.525452117704999555e+00 -2.593053573631399544e+01 -2.001156735093999828e+01 9.252949279925999804e+00 -2.001156735093999828e+01 -3.637035148676599761e+01
-1.068948021836199835e+01 1.546575353907099704e+01 2.122147977235000038e+00 1.546575353907099704e+01 -5.689085025306098942e+01 4.507403893728999300e+00 2.122147977235000038e+00 4.509324389635999353e+00 -3.559831213215199597e+01
-2.075671976285599740e+01 -9.320166636670998983e+00 -1.964667312860999937e+00 -9.320166636670998983e+00 -6.445376313482699970e+01 2.212411284863999850e+00 -1.964667312860999937e+00 2.212411284863999850e+00 -2.374117040233399578e+01
-3.269260182486099353e+01 2.536975093146999427e+00 -7.697347595255999764e+00 2.536975093146999427e+00 -3.607459511708799482e+01 1.301328026583199815e+01 -7.697347595255999764e+00 1.301328026583199815e+01 -2.825817677559799534e+01
-4.745737435787699354e+01 1.101596452255199843e+01 -8.406010584938998775e+00 1.101596452255199843e+01 -3.896494145712299684e+01 -6.811998982128998570e+00 -8.406010584938998775e+00 -6.811998982128998570e+00 -3.422323706273999733e+01
-3.937016609349999641e+01 -1.093722419036499893e+01 -1.258693017447799889e+01 -1.093722419036499893e+01 -4.193018713753100002e+01 1.499523204185599745e+01 -1.258693017447799889e+01 1.499523204185599745e+01 -3.992903040243699309e+01
-1.668142744820199752e+01 -1.044941822998699799e+01 2.121187729281499657e+01 -1.044941822998699799e+01 -3.821978904520699416e+01 -2.344925502446999932e+00 2.121187729281499657e+01 -2.344925502446999932e+00 -1.441716277384899847e+01
-6.673531227234299479e+01 7.255633536645999193e+00 -1.254083827270999985e+00 7.255633536645999193e+00 -5.513935798587699111e+01 -6.445184263891999166e+00 -1.254083827270999985e+00 -6.445184263891999166e+00 -4.474563413719299376e+01
-1.702327571964799802e+01 5.473413334949999154e-01 -4.355684717075999579e+00 5.473413334949999154e-01 -1.657003868559599979e+01 -1.753412763090999693e+00 -4.355684717075999579e+00 -1.753412763090999693e+00 -2.403308578019800024e+01
-6.344358228774499509e+01 8.511637859823999008e+00 -4.722499435312998983e+00 8.511637859823999008e+00 -4.992905259018599651e+01 3.395436763575999439e+00 -4.722499435312998983e+00 3.395436763575999439e+00 -4.768591337080999892e+01
-3.557718667717499272e+01 -9.952009790073999440e+00 5.876717475419999115e-01 -9.952009790073999440e+00 -5.103909922443199321e+01 -1.589402412633199901e+01 5.876717475419999115e-01 -1.589402412633199901e+01 -3.774158556436399437e+01
-5.248523264240299113e+01 -2.521611125890999450e+00 -1.661228959554999829e+00 -2.521611125890999450e+00 -2.033421066331599647e+01 -2.304595088399999658e-01 -1.661228959554999829e+00 -2.304595088399999658e-01 -1.168813809000199910e+01
-2.360481519293699648e+01 6.646836334126999368e+00 6.101415496538999506e+00 6.648756830033998533e+00 -3.013066028492299964e+01 6.898421297943999164e+00 6.101415496538999506e+00 6.898421297943999164e+00 -6.056283842724499067e+01
3.330139902737999869e+00 5.538710195787999169e+00 -2.212411284863999850e+00 5.538710195787999169e+00 3.725762059579999619e+00 -1.750532019230499614e+01 -2.212411284863999850e+00 -1.750532019230499614e+01 -1.908588832376599953e+01
-3.547347989819699876e+01 -6.481673686124999278e+00 4.278864880795999248e+00 -6.481673686124999278e+00 -3.230658214755399626e+01 7.874033218699998393e-01 4.278864880795999248e+00 7.874033218699998393e-01 -5.300184604138599553e+01
-5.054745227223999393e+01 -1.386598044853999845e+01 -1.133092585129999857e-01 -1.386598044853999845e+01 -1.186482371344599862e+01 1.548687899404799850e+01 -1.113887626059999886e-01 1.548879948995499589e+01 -3.114852311563299736e+01
-4.517582522036099135e+01 3.783376936789999423e+00 -1.373154573504999831e+01 3.783376936789999423e+00 -3.830813185692899481e+01 8.899578033037998992e+00 -1.373154573504999831e+01 8.899578033037998992e+00 -1.664493802596899741e+01
-6.180924027088799022e+01 1.898602253660200034e+01 -5.045142747688998952e+00 1.898602253660200034e+01 -8.469386949869997849e+00 2.501445918867499785e+01 -5.045142747688998952e+00 2.501445918867499785e+01 -2.255814492362199530e+01
-3.031118690018099215e+01 6.894580306129999059e+00 -3.668147182369999593e-01 6.894580306129999059e+00 -3.691577232435399480e+01 1.000578367546999914e+01 -3.648942223299999621e-01 1.000578367546999914e+01 -3.016714970715599620e+01
-2.774540436842899638e+01 1.047438467677799778e+01 1.419438524863699769e+01 1.047438467677799778e+01 -2.805268371354899770e+01 -1.094682666989999914e-01 1.419438524863699769e+01 -1.094682666989999914e-01 -1.222011545624099860e+01
-1.534284180102299722e+01 3.829468838557999799e+00 7.048219978689999055e-01 3.829468838557999799e+00 -2.719038105130599803e+01 3.151533783386999854e+00 7.048219978689999055e-01 3.151533783386999854e+00 -1.466298624994499811e+01
-1.336089002499899792e+01 2.289231121143999736e+00 1.574806643739999679e+00 2.289231121143999736e+00 -1.481086443478399772e+01 9.327848620298999194e+00 1.574806643739999679e+00 9.327848620298999194e+00 -4.566939266845999157e+00
-3.844256657041899672e+01 1.279818472424799758e+01 7.086629896830000108e-01 1.279818472424799758e+01 -5.818142350256498929e+01 1.460729186864199747e+01 7.086629896830000108e-01 1.460729186864199747e+01 -1.265414753122299807e+01
-2.687541972255799649e+01 -1.473212410259699823e+01 4.897264562849999336e+00 -1.473212410259699823e+01 -3.128103733321599833e+01 8.373362154519999878e-01 4.897264562849999336e+00 8.373362154519999878e-01 -3.055701037627699890e+01
-4.407154007383599037e+01 -8.342634220007997925e+00 1.504516493543799882e+01 -8.344554715914998866e+00 -4.550807101227199070e+01 8.901498528944999933e+00 1.504516493543799882e+01 8.901498528944999933e+00 -4.487046637114799097e+01
-3.698106918519199127e+01 -8.851565635362998563e+00 4.532370340519999430e-01 -8.851565635362998563e+00 -3.464958715409399304e+01 -2.400619883749999683e+00 4.532370340519999430e-01 -2.400619883749999683e+00 -5.590947684458399181e+01
-4.143085820171098987e+01 -4.155953142747999429e+00 -2.823128983289999727e-01 -4.155953142747999429e+00 -2.275595600204299629e+01 -1.666222248913199877e+01 -2.823128983289999727e-01 -1.666222248913199877e+01 -3.823707350836999552e+01
-4.869993520970599121e+01 -1.169966106544399942e+01 -1.728638365890699902e+01 -1.169966106544399942e+01 -6.054939495589599119e+01 -2.087579050908999978e+00 -1.728638365890699902e+01 -2.087579050908999978e+00 -4.462848388686600032e+01
-1.722876878169699921e+01 -1.974269792395999756e+00 3.814104871301999378e+00 -1.974269792395999756e+00 -2.388904858717299717e+01 -1.209336272637899867e+01 3.814104871301999378e+00 -1.209336272637899867e+01 -1.184753925028299903e+01
-5.602470659900399141e+01 3.685431645532999401e+00 -1.184945974618999820e+01 3.685431645532999401e+00 -2.507783555360599692e+01 3.648942223299999621e-01 -1.184945974618999820e+01 3.648942223299999621e-01 -3.173811535908199488e+01
-9.360881149899398679e+01 -1.825047260422099527e+01 1.156906734376799761e+01 -1.825047260422099527e+01 -5.991371081067899240e+01 2.210490788956999353e+00 1.156906734376799761e+01 2.210490788956999353e+00 -7.523542715672499526e+01
-1.863265128971399776e+01 -5.488777302205998687e+00 2.362209965609999851e-01 -5.488777302205998687e+00 -2.776845031931299701e+01 -1.791054482868199571e+01 2.362209965609999851e-01 -1.791054482868199571e+01 -3.852322739851299360e+01
-3.862501368158400084e+01 1.929714287353599644e+01 -6.712133194964998495e+00 1.929714287353599644e+01 -2.937590539347199581e+01 1.396968722751799774e+01 -6.710212699057999330e+00 1.396968722751799774e+01 -4.888430281677799627e+01
-1.046862318905699851e+01 -7.478411061857999087e+00 2.204729301235999639e+00 -7.478411061857999087e+00 -1.835802037501299822e+01 -9.364338042531999307e+00 2.204729301235999639e+00 -9.364338042531999307e+00 -7.503377508648998884e+00
-1.786637342282099894e+01 7.624368750789998650e+00 -6.798555510779998867e-01 7.624368750789998650e+00 -4.146158613622299782e+01 4.628395135869999288e-01 -6.798555510779998867e-01 4.628395135869999288e-01 -3.918771898233499229e+01
2.433268314168999691e+00 3.051667996222999335e+00 -1.168429709818799900e+01 3.051667996222999335e+00 -1.145959907706899905e+01 -3.424244202180999785e+00 -1.168429709818799900e+01 -3.424244202180999785e+00 -2.433268314168999780e+01
-4.847331669267999388e+01 5.425400937274998725e+00 -7.357419819716999321e+00 5.425400937274998725e+00 -5.084128814601099577e+01 1.085848385817799944e+01 -7.357419819716999321e+00 1.085848385817799944e+01 -3.489156963837599790e+01
-3.652015016751199994e+01 -1.110430733427399907e+01 2.085658555001999481e+00 -1.110622783018099824e+01 -3.608419759662299242e+01 -7.186495683993999073e+00 2.085658555001999481e+00 -7.184575188086999020e+00 -4.584799878781099380e+01
-8.201477770843499115e+01 -2.022282190070999519e+00 -8.851565635362998563e+00 -2.022282190070999519e+00 -6.314782591806699230e+01 -3.387754779947999673e+00 -8.851565635362998563e+00 -3.387754779947999673e+00 -4.784915552290499363e+01
-5.438460309442599083e+01 6.911864769292999533e+00 -6.650677325940999474e+00 6.911864769292999533e+00 -4.048981520728099781e+01 7.086629896829998998e+00 -6.650677325940999474e+00 7.086629896829998998e+00 -5.995980271244699367e+01
-4.813915040486199359e+01 3.917811650280000002e+00 -1.469179368854999668e+00 3.917811650280000002e+00 -1.311122555708899817e+01 2.127909464955999752e+00 -1.469179368854999668e+00 2.129829960862999805e+00 -3.538513708647499811e+01
-2.224126309896699638e+01 -1.576727139646999731e+00 -1.163244370869899846e+01 -1.576727139646999731e+00 -5.134253757773799265e+01 3.264843041899999410e+00 -1.163244370869899846e+01 3.264843041899999410e+00 -2.200120111059199601e+01
-1.468219120901499863e+01 4.225090995399999327e-02 -2.150955415839999607e-01 4.225090995399999327e-02 -1.037067789779999805e+00 6.126381943329999302e-01 -2.150955415839999607e-01 6.145586902399999829e-01 -1.016518483575099907e+01
-6.033429941431199239e+01 -1.499331154594899829e+01 7.023253531898999036e+00 -1.499331154594899829e+01 -2.403116528429099574e+01 -4.169396614096999798e+00 7.023253531898999036e+00 -4.169396614096999798e+00 -2.943352027068199561e+01
-4.051478165407199583e+01 2.225854756212999774e+00 1.557330130986299821e+01 2.223934260305999722e+00 -6.265425846996799208e+01 2.440950297796999902e+00 1.557330130986299821e+01 2.440950297796999902e+00 -4.213375970367299317e+01
-3.009993235041099524e+01 5.127724071689998553e-01 -3.963903552047999046e+00 5.127724071689998553e-01 -3.274061422253599574e+01 1.998468040824199932e+01 -3.963903552047999046e+00 1.998468040824199932e+01 -2.442294644931899583e+01
-3.510858567586699053e+01 -3.894765699395999370e+00 -1.356062159932699807e+01 -3.894765699395999370e+00 -2.083546009504299690e+01 7.547548914509999429e-01 -1.356062159932699807e+01 7.547548914509999429e-01 -6.183228622177199441e+01
-3.276942166114099564e+01 2.009414867494099610e+01 -1.582488627367999667e+00 2.009414867494099610e+01 -5.064731805940399312e+01 1.050511261128999729e+00 -1.580568131460999615e+00 1.048590765221999899e+00 -3.746503415375599388e+01
-5.441533102893799878e+01 7.217223618505999028e+00 -1.813524284980099921e+01 7.217223618505999028e+00 -2.257734988269199761e+01 1.340506143085999913e+00 -1.813524284980099921e+01 1.340506143085999913e+00 -6.101031397357598962e+01
-4.136940233268699529e+01 8.607662655173998090e+00 1.737664696653599705e+01 8.607662655173998090e+00 -3.029774342883199267e+01 1.611296065972999791e+00 1.737664696653599705e+01 1.611296065972999791e+00 -6.270611185945698907e+01
-7.435776052722599161e+01 4.543893315961999413e+00 -4.532370340519999430e-01 4.543893315961999413e+00 -6.285399004429599046e+01 -1.088729129678299934e+01 -4.513165381449999458e-01 -1.088729129678299934e+01 -4.313241757531299214e+01
-3.126567336595999436e+01 -3.259081554178999696e+00 -5.765328712813999168e+00 -3.259081554178999696e+00 -1.926257394720999727e+01 2.485121703657999781e+00 -5.765328712813999168e+00 2.485121703657999781e+00 -2.090843893950900068e+01
-1.503556245590299589e+01 -1.325142175829999713e+00 5.000971341827999517e+00 -1.325142175829999713e+00 -2.116578539104699530e+01 1.845980665808399834e+01 5.000971341827999517e+00 1.845980665808399834e+01 -1.320148886471799798e+01
-5.813725209670399607e+01 -1.632037421768599827e+01 -1.605342528661299895e+01 -1.632037421768599827e+01 -4.390637742583399472e+01 -4.755147865731998991e+00 -1.605342528661299895e+01 -4.755147865731998991e+00 -2.979265300529099747e+01
-6.426939552775499465e+01 2.186292540528799577e+01 -6.237770705935999693e+00 2.186292540528799577e+01 -4.024975321890599389e+01 9.871348961979998782e-01 -6.237770705935999693e+00 9.871348961979998782e-01 -5.725766497129799149e+01
-3.863461616111899133e+01 -3.831389334464998964e+00 -4.244295954470000076e+00 -3.831389334464998964e+00 -3.156142973563799714e+01 9.690822346721999381e+00 -4.244295954470000076e+00 9.690822346721999381e+00 -4.235461673297799479e+01
-2.078744769736799824e+01 -5.081632169921999065e+00 3.437687673529999266e+00 -5.081632169921999065e+00 -4.497033215831199016e+01 -5.978503758490998798e+00 3.437687673529999266e+00 -5.978503758490998798e+00 -7.061855499629699295e+01
-4.371240733922699206e+01 -2.360289469702999909e+01 -5.938173344443999468e+00 -2.360481519293699648e+01 -6.304027814727498935e+01 2.454393769145999826e+00 -5.938173344443999468e+00 2.454393769145999826e+00 -5.937021046899799614e+01
-6.295961731918099247e+01 -1.360671350109499933e+01 1.177456040581699881e+01 -1.360671350109499933e+01 -3.281359306700199596e+01 -2.730945179753999863e+00 1.177456040581699881e+01 -2.730945179753999863e+00 -6.732874550760598709e+01
-3.508553972498299345e+01 5.847910036814998769e+00 2.727488287121399679e+01 5.847910036814998769e+00 -5.190140188667499643e+01 2.594589970356999675e+00 2.727488287121399679e+01 2.594589970356999675e+00 -6.612075358210299214e+01
-3.569817791931599515e+01 -6.704451211336999172e+00 -1.714234646588199595e+01 -6.704451211336999172e+00 -5.119850038471299314e+01 1.679473670671499619e+01 -1.714234646588199595e+01 1.679473670671499619e+01 -5.492618294019999325e+01
-4.811034296625699369e+01 -8.592298687917997668e+00 2.065301298387799633e+01 -8.592298687917997668e+00 -3.646829677802299585e+01 -5.646257966579999454e-01 2.065301298387799633e+01 -5.646257966579999454e-01 -3.924149286773099732e+01
-5.615914131249399333e+01 -1.282891265875999887e+00 -1.027081211063599930e+01 -1.282891265875999887e+00 -4.353380121987599694e+01 7.249872048924999035e+00 -1.027081211063599930e+01 7.249872048924999035e+00 -6.872110504018100130e+01
-3.978307271350499974e+01 5.289045727877999425e+00 -1.617057553693999949e+01 5.289045727877999425e+00 -2.912624092556199784e+01 -2.780878073335999900e+00 -1.617057553693999949e+01 -2.780878073335999900e+00 -2.675826947223099594e+01
-2.594589970356999586e+01 1.025928913519399899e+01 6.379887403053999151e+00 1.026120963110099815e+01 -5.853863574126699376e+01 -1.867298170376099975e+01 6.379887403053999151e+00 -1.867106120785399881e+01 -3.675445066816599393e+01
-5.930299311225299164e+01 8.843883651734998352e+00 -1.327062671736999766e+00 8.843883651734998352e+00 -1.567508759293400011e+01 4.659123070381999909e+00 -1.325142175829999713e+00 4.659123070381999909e+00 -3.323034067882099407e+01
-3.280591108337399930e+01 1.035339343463699890e+01 -2.880743860499999573e-02 1.035339343463699890e+01 -3.545619543503399740e+01 5.569438130299999123e+00 -2.880743860499999573e-02 5.569438130299999123e+00 -3.714239084137999214e+01
-4.882476744366099553e+01 -9.569831104580998726e+00 7.249872048924999035e+00 -9.569831104580998726e+00 -4.544277415143399423e+01 -1.151529345837199791e+01 7.249872048924999035e+00 -1.151529345837199791e+01 -6.702338665839299381e+01
-1.731711159341899986e+01 8.104492727539998498e+00 3.961983056140999881e+00 8.104492727539998498e+00 4.238534466748999918e+00 -6.406774345751999000e+00 3.961983056140999881e+00 -6.406774345751999000e+00 -1.346075581216299710e+01
-3.486468269567799894e+01 1.227196884572999913e+00 3.551381031224399720e+01 1.229117380479999966e+00 -4.541972820054999360e+00 2.328793336828199756e+01 3.551381031224399720e+01 2.328601287237499662e+01 -2.666800616460199791e+01
-4.820828825751399194e+01 1.128099295771799859e+01 1.299983679448299867e+01 1.128099295771799859e+01 -6.376622560012099683e+01 -5.824864085930999913e+00 1.299983679448299867e+01 -5.824864085930999913e+00 -4.346466336722399149e+01
-3.708477596416999944e+01 1.044941822998699799e+01 -5.738441770115999319e+00 1.044941822998699799e+01 -5.173431874276599274e+01 -1.078742550961899838e+01 -5.738441770115999319e+00 -1.078742550961899838e+01 -7.548125063282098779e+01
-1.654507223880499822e+01 -3.648942223299999482e-02 -1.321301184015999830e+00 -3.648942223299999482e-02 -2.920690175365599472e+01 -1.958905825139999612e-01 -1.321301184015999830e+00 -1.958905825139999612e-01 -4.054743008449099761e+01
-4.487814835477599473e+01 -5.377388539599998740e-01 -1.372770474323599821e+01 -5.377388539599998740e-01 -2.322839799516499681e+01 1.753412763090999693e+00 -1.372770474323599821e+01 1.753412763090999693e+00 -2.149226969523699537e+01
-2.749958089233299674e+01 -4.737863402568999405e+00 7.906681649118999289e+00 -4.737863402568999405e+00 -6.957764621470298039e+01 1.622819041414999885e+00 7.906681649118999289e+00 1.622819041414999885e+00 -5.402162936800299775e+01
-4.339744601047899408e+01 -2.065493347978499727e+01 1.447285715515199911e+01 -2.065685397569199822e+01 -3.847905599265200038e+01 7.213382626691998922e+00 1.447285715515199911e+01 7.213382626691998922e+00 -8.692356524672699436e+01
-4.611494771888398958e+01 1.057232996803499958e+01 -2.049169132768999813e+00 1.057425046394199875e+01 -2.042831496275899994e+01 -2.624549706506199698e+01 -2.049169132768999813e+00 -2.624549706506199698e+01 -2.844254438266999685e+01
-4.838689437686499417e+01 6.913785265199999808e-01 4.586144225915999684e+00 6.913785265199999808e-01 -6.907831727888299156e+01 1.931058634488499592e+01 4.586144225915999684e+00 1.931058634488499592e+01 -3.308822398170299550e+01
-3.194744941294499796e+01 -5.809500118674999491e+00 -1.671599637452799669e+01 -5.809500118674999491e+00 -2.232384442296799776e+01 1.762439093853899763e+01 -1.671599637452799669e+01 1.762439093853899763e+01 -3.581148717782899382e+01
-3.996551982466998965e+01 1.305553117578599931e+01 8.930305967549999613e-01 1.305745167169299847e+01 -4.235653722888499573e+01 -7.040537995061999510e+00 8.930305967549999613e-01 -7.040537995061999510e+00 -2.551378812449499733e+01
-2.933365448351799643e+01 3.201466676968999892e+00 -1.192820007837699947e+01 3.201466676968999892e+00 -1.696950183425199654e+01 1.846364764989799667e+01 -1.192820007837699947e+01 1.846364764989799667e+01 -3.984260808662199338e+01
-2.326872840921199881e+01 6.103335992445998670e+00 -5.842148549093999499e+00 6.103335992445998670e+00 -4.314394055075499068e+01 5.713475323324999522e+00 -5.842148549093999499e+00 5.713475323324999522e+00 -4.444603677570099620e+01
-3.416370168962299658e+01 -1.405803003923999928e+00 1.022472020886799804e+01 -1.405803003923999928e+00 -2.695223955883799505e+01 7.315168909762999050e+00 1.022472020886799804e+01 7.315168909762999050e+00 -4.314778154256899967e+01
-5.108903211801399635e+01 -6.005390701188999536e+00 -1.170926354497899879e+01 -6.005390701188999536e+00 -2.095837183309100027e+01 -2.006918222814999542e+00 -1.170926354497899879e+01 -2.004997726907999933e+00 -5.835234763828799487e+01
-6.778582353347199785e+01 1.087000683361999798e+01 1.812948136207999772e+00 1.087000683361999798e+01 -5.956610105151199264e+01 -1.112735328515799793e+01 1.812948136207999772e+00 -1.112735328515799793e+01 -6.520659753037098483e+01
-2.838108851364599516e+01 8.995602828387998073e+00 -1.614560909014899792e+01 8.995602828387998073e+00 -4.173237605910999548e+01 -1.387366243216799866e+01 -1.614560909014899792e+01 -1.387366243216799866e+01 -6.505871934553199765e+01
-3.942586047480299527e+01 3.099680393897999764e+00 2.625317904868999630e+00 3.099680393897999764e+00 -3.356258647073199342e+01 -3.399277755389999434e-01 2.625317904868999630e+00 -3.399277755389999434e-01 -5.031507226749299377e+01
-3.415601970599499282e+01 -4.152112150933999324e+00 1.943157758702599835e+01 -4.152112150933999324e+00 -4.060696545760799125e+01 2.414447454280399796e+01 1.943157758702599835e+01 2.414447454280399796e+01 -2.136167597356099535e+01
-1.818709623928999619e+01 7.996944956747999100e+00 1.607455074158999686e+00 7.996944956747999100e+00 -4.672566541730999745e+01 -1.371810226370099883e+01 1.607455074158999686e+00 -1.371810226370099883e+01 -3.027853846976199392e+01
-1.006339855267999894e+01 1.017862830709999855e+01 -1.060689889436099875e+01 1.017862830709999855e+01 -3.680630405765499802e+01 -9.199175394529998107e-01 -1.060689889436099875e+01 -9.199175394529998107e-01 -5.120042088061999230e+00