-3.007671319999999832e+04
-3.007733510000000024e+04
-3.008015339999999924e+04
-3.007992540000000008e+04
-3.007542450000000099e+04
-3.007814129999999932e+04
-3.007565610000000015e+04
-3.008179520000000048e+04
-3.007259249999999884e+04
-3.007729739999999947e+04
-3.007820799999999872e+04
-3.007932770000000164e+04
-3.007864229999999952e+04
-3.007611769999999888e+04
-3.007710050000000047e+04
-3.007629859999999826e+04
-3.007636669999999867e+04
-3.007937989999999991e+04
-3.007830649999999878e+04
-3.007828389999999854e+04
-3.007694350000000122e+04
-3.007749919999999838e+04
-3.007518159999999989e+04
-3.007832029999999941e+04
-3.007951129999999830e+04
-3.007630120000000170e+04
-3.007578080000000045e+04
-3.007762159999999858e+04
-3.007206499999999869e+04
-3.007475270000000091e+04
-3.007972139999999854e+04
-3.007876819999999861e+04
-3.008035290000000168e+04
-3.007819989999999962e+04
-3.007883599999999933e+04
-3.007582349999999860e+04
-3.007950419999999940e+04
-3.007464449999999852e+04
-3.007934379999999874e+04
-3.007401229999999850e+04
-3.007816279999999824e+04
-3.007487450000000172e+04
-3.007705749999999898e+04
-3.007530410000000120e+04
-3.007883490000000165e+04
-3.007727409999999873e+04
-3.007942309999999998e+04
-3.007807089999999880e+04
-3.007400370000000112e+04
-3.007802530000000115e+04
-3.008016770000000179e+04
-3.007758320000000094e+04
-3.007937450000000172e+04
-3.007687730000000010e+04
-3.007757540000000154e+04
-3.007876250000000073e+04
-3.007687090000000171e+04
-3.007853859999999986e+04
-3.007848809999999867e+04
-3.008095809999999983e+04
-3.008041949999999997e+04
-3.007482050000000163e+04
-3.007621140000000014e+04
-3.007562610000000132e+04
-3.007238390000000072e+04
-3.007930909999999858e+04
-3.007627569999999832e+04
-3.007859570000000167e+04
-3.008037849999999889e+04
-3.007055990000000020e+04
-3.007775340000000142e+04
-3.007842910000000120e+04
-3.007844700000000012e+04
-3.007623979999999938e+04
-3.007751970000000074e+04
-3.007451440000000002e+04
-3.007840789999999834e+04
-3.007767810000000100e+04
-3.007857709999999861e+04
-3.007592540000000008e+04
-3.007984270000000106e+04
-3.007932200000000012e+04
-3.007496389999999883e+04
-3.007822920000000158e+04
-3.007606920000000173e+04
-3.007657210000000123e+04
-3.007829200000000128e+04
-3.007381520000000091e+04
-3.007691770000000179e+04
-3.007241570000000138e+04
-3.007869150000000081e+04
-3.008024350000000049e+04
-3.007663699999999881e+04
-3.007380960000000050e+04
-3.007523119999999835e+04
-3.007660050000000047e+04
-3.007495339999999851e+04
-3.007408580000000075e+04
-3.007329460000000108e+04
-3.007646589999999924e+04
-3.008141440000000148e+04
-3.007505710000000181e+04
-3.007556520000000091e+04
-3.007671510000000126e+04
-3.007915179999999964e+04
-3.007853819999999905e+04
-3.007392919999999867e+04
-3.007961179999999877e+04
-3.007855570000000080e+04
-3.007802219999999943e+04
-3.007766709999999875e+04
-3.007791900000000169e+04
-3.008024929999999949e+04
-3.007958139999999912e+04
-3.007234579999999914e+04
-3.007732819999999992e+04
-3.007920119999999952e+04
-3.007749399999999878e+04
-3.007699889999999868e+04
-3.007841319999999905e+04
-3.007699069999999847e+04
-3.007791149999999834e+04
-3.007653280000000086e+04
-3.007521020000000135e+04
-3.007652999999999884e+04
-3.007544930000000022e+04
-3.007700579999999900e+04
-3.007908060000000114e+04
-3.008011249999999927e+04
-3.007655909999999858e+04
-3.008110050000000047e+04
-3.007820959999999832e+04
-3.007759749999999985e+04
-3.007590859999999884e+04
-3.008015669999999955e+04
-3.007972379999999976e+04
-3.007759219999999914e+04
-3.007716479999999865e+04
-3.007912150000000111e+04
-3.007731269999999859e+04
-3.007774269999999888e+04
-3.007370179999999891e+04
-3.007602660000000105e+04
-3.007858399999999892e+04
-3.008018899999999849e+04
-3.007762050000000090e+04
-3.007937110000000030e+04
-3.007807210000000123e+04
-3.007505110000000059e+04
-3.008063799999999901e+04
-3.007521979999999894e+04
-3.007947320000000036e+04
-3.008015220000000045e+04
-3.007460269999999946e+04
-3.007794719999999870e+04
-3.007565550000000076e+04
-3.007543830000000162e+04
-3.007777530000000115e+04
-3.007713620000000083e+04
-3.007751030000000173e+04
-3.007722450000000026e+04
-3.007833099999999831e+04
-3.007403989999999976e+04
-3.007432280000000173e+04
-3.007707080000000133e+04
-3.007799390000000130e+04
-3.007160749999999825e+04
-3.007455819999999949e+04
-3.006885099999999875e+04
-3.007742550000000119e+04
-3.007356880000000092e+04
-3.007601020000000062e+04
-3.007626009999999951e+04
-3.007644359999999870e+04
-3.007888850000000093e+04
-3.007795219999999972e+04
-3.007662359999999899e+04
-3.007599260000000140e+04
-3.007216869999999835e+04
-3.007665209999999934e+04
-3.008002049999999872e+04
-3.007837900000000081e+04
-3.007881929999999920e+04
-3.007901399999999921e+04
-3.007964960000000065e+04
-3.007736669999999867e+04
-3.007740999999999985e+04
-3.007714649999999892e+04
-3.007936579999999958e+04
-3.007804469999999856e+04
-3.007873040000000037e+04
-3.007027470000000176e+04
-3.007667659999999887e+04
-3.007802200000000084e+04
-3.007836890000000130e+04
-3.007686179999999877e+04
-3.007675749999999971e+04
-3.007689830000000075e+04
-3.008045969999999943e+04
-3.007550609999999870e+04
-3.007400289999999950e+04
-3.007622479999999996e+04
-3.007886479999999938e+04
-3.007832050000000163e+04
-3.007680640000000130e+04
-3.007532860000000073e+04
-3.007654699999999866e+04
-3.007677549999999974e+04
-3.007384049999999843e+04
-3.007227669999999853e+04
-3.007766960000000108e+04
-3.007840030000000115e+04
-3.007464349999999831e+04
-3.007902960000000166e+04
-3.007777300000000105e+04
-3.007803800000000047e+04
-3.007711590000000069e+04
-3.007402140000000145e+04
-3.007914259999999922e+04
-3.007587659999999960e+04
-3.007433650000000125e+04
-3.008037610000000132e+04
-3.007621389999999883e+04
-3.007769459999999890e+04
-3.007665729999999894e+04
-3.007505299999999988e+04
-3.007630760000000009e+04
-3.007799309999999969e+04
-3.008154539999999906e+04
-3.007954630000000179e+04
-3.007743609999999899e+04
-3.007561360000000059e+04
-3.007819350000000122e+04
-3.007830579999999827e+04
-3.007957330000000002e+04
-3.007749659999999858e+04
-3.007847369999999864e+04
-3.007558569999999963e+04
-3.008037269999999990e+04
-3.007982589999999982e+04
-3.007712830000000031e+04
-3.007947769999999946e+04
-3.007532229999999981e+04
-3.007782509999999820e+04
-3.007822330000000147e+04
-3.007826489999999831e+04
-3.007411860000000161e+04
-3.007908989999999903e+04
-3.007764479999999821e+04
-3.008107779999999912e+04
-3.007804560000000129e+04
-3.007761000000000058e+04
-3.007865480000000025e+04
-3.007981339999999909e+04
-3.008195579999999973e+04
-3.007553470000000016e+04
-3.008033369999999923e+04
-3.007707709999999861e+04
-3.007353940000000148e+04
-3.007781710000000021e+04
-3.007765499999999884e+04
-3.007330840000000171e+04
-3.008045959999999832e+04
-3.008024850000000151e+04
-3.007576770000000033e+04
-3.007453589999999895e+04
-3.007949629999999888e+04
-3.007634809999999925e+04
-3.007487320000000182e+04
-3.007806109999999899e+04
-3.007730700000000070e+04
-3.007637629999999990e+04
-3.007451710000000094e+04
-3.007960829999999987e+04
-3.007979260000000068e+04
-3.007756820000000153e+04
-3.007352110000000175e+04
-3.007700619999999981e+04
-3.007518130000000019e+04
-3.007334360000000015e+04
-3.007973059999999896e+04
-3.007910959999999977e+04
-3.007773930000000109e+04
-3.007998640000000159e+04
-3.007712069999999949e+04
-3.007611070000000109e+04
-3.007509619999999995e+04
-3.007798010000000068e+04
-3.007735959999999977e+04
-3.007756999999999971e+04
-3.007729379999999946e+04
-3.008194289999999819e+04
-3.007628989999999976e+04
-3.007630809999999838e+04
-3.007339089999999851e+04
-3.007809340000000157e+04
-3.007675070000000051e+04
-3.007812800000000061e+04
-3.007928580000000147e+04
-3.007793609999999899e+04
-3.008045690000000104e+04
-3.007833770000000004e+04
-3.007788330000000133e+04
-3.007976929999999993e+04
-3.007943089999999938e+04
-3.007843660000000091e+04
-3.008116449999999895e+04
-3.007347030000000086e+04
-3.007748979999999938e+04
-3.008306889999999839e+04
-3.007852179999999862e+04
-3.007802539999999863e+04
-3.007904049999999916e+04
-3.008007240000000093e+04
-3.007635979999999836e+04
-3.007545829999999842e+04
-3.008201919999999882e+04
-3.007765350000000035e+04
-3.007873089999999866e+04
-3.007882609999999841e+04
-3.007865780000000086e+04
-3.007670780000000013e+04
-3.007830069999999978e+04
-3.008002699999999822e+04
-3.007985139999999956e+04
-3.007916820000000007e+04
-3.007585339999999997e+04
-3.007624049999999988e+04
-3.007276870000000054e+04
-3.008108069999999861e+04
-3.007895239999999831e+04
-3.007780840000000171e+04
-3.008111999999999898e+04
-3.007757860000000073e+04
-3.008010259999999835e+04
-3.008068159999999989e+04
-3.008064770000000135e+04
-3.007861360000000059e+04
-3.007572320000000036e+04
-3.007465190000000075e+04
-3.007734679999999935e+04
-3.007373939999999857e+04
-3.007441470000000118e+04
-3.007739860000000044e+04
-3.007944050000000061e+04
-3.007585469999999987e+04
-3.007948089999999866e+04
-3.007880559999999969e+04
-3.007277360000000044e+04
-3.008084850000000006e+04
-3.007669060000000172e+04
-3.007796359999999913e+04
-3.007848010000000068e+04
-3.007912600000000020e+04
-3.007752899999999863e+04
-3.007362529999999970e+04
-3.007888890000000174e+04
-3.008452869999999893e+04
-3.007842729999999938e+04
-3.007915559999999823e+04
-3.008001069999999891e+04
-3.007928250000000116e+04
-3.007828369999999995e+04
-3.007747390000000087e+04
-3.007711249999999927e+04
-3.007386109999999826e+04
-3.007629550000000017e+04
-3.007764370000000054e+04
-3.007663130000000092e+04
-3.007725340000000142e+04
-3.007574689999999828e+04
-3.007325700000000143e+04
-3.007706420000000071e+04
-3.008054309999999896e+04
-3.007896410000000105e+04
-3.007570290000000023e+04
-3.007902509999999893e+04
-3.007756560000000172e+04
-3.007683629999999903e+04
-3.007472200000000157e+04
-3.008036530000000130e+04
-3.008117799999999988e+04
-3.007544519999999829e+04
-3.007830779999999868e+04
-3.007806000000000131e+04
-3.007495390000000043e+04
-3.007766500000000087e+04
-3.008180549999999857e+04
-3.007588899999999921e+04
-3.007885689999999886e+04
-3.007827189999999973e+04
-3.008113039999999819e+04
-3.007416619999999966e+04
-3.008194759999999951e+04
-3.007959249999999884e+04
-3.007766110000000117e+04
-3.007311579999999958e+04
-3.007916990000000078e+04
-3.007398180000000139e+04
-3.007682259999999951e+04
-3.008048969999999827e+04
-3.007874799999999959e+04
-3.007775070000000051e+04
-3.008091549999999916e+04
-3.007842529999999897e+04
-3.007996329999999944e+04
-3.007899769999999990e+04
-3.007695920000000115e+04
-3.007545390000000043e+04
-3.007277709999999934e+04
-3.007923740000000180e+04
-3.007721540000000095e+04
-3.007725969999999870e+04
-3.007767659999999887e+04
-3.008009839999999895e+04
-3.007480809999999838e+04
-3.007418089999999938e+04
-3.007845780000000013e+04
-3.008099769999999990e+04
-3.007539839999999822e+04
-3.007898890000000029e+04
-3.007486209999999846e+04
-3.007710719999999856e+04
-3.007449230000000171e+04
-3.007293509999999878e+04
-3.007758399999999892e+04
-3.007631169999999838e+04
-3.007692459999999846e+04
-3.007999559999999838e+04
-3.007722309999999925e+04
-3.007756620000000112e+04
-3.007276190000000133e+04
-3.007588030000000072e+04
-3.007741259999999966e+04
-3.008242810000000100e+04
-3.007715889999999854e+04
-3.007453960000000006e+04
-3.007576050000000032e+04
-3.007756799999999930e+04
-3.007772899999999936e+04
-3.007950649999999951e+04
-3.007770959999999832e+04
-3.007606420000000071e+04
-3.007874810000000070e+04
-3.007703009999999995e+04
-3.007180649999999878e+04
-3.007459000000000015e+04
-3.007799209999999948e+04
-3.007209769999999844e+04
-3.007724950000000172e+04
-3.007525029999999970e+04
-3.007805830000000060e+04
-3.007573579999999856e+04
-3.008077639999999883e+04
-3.007738209999999890e+04
-3.008133030000000144e+04
-3.007413149999999951e+04
-3.007550769999999829e+04
-3.007837779999999839e+04
-3.007824260000000140e+04
-3.007862889999999970e+04
-3.007481369999999879e+04
-3.007602319999999963e+04
-3.007706420000000071e+04
-3.007682509999999820e+04
-3.007971199999999953e+04
-3.007879709999999977e+04
-3.008117250000000058e+04
-3.007626940000000104e+04
-3.007930670000000100e+04
-3.007736179999999877e+04
-3.007885510000000068e+04
-3.007464419999999882e+04
-3.007720679999999993e+04
-3.007591700000000128e+04
-3.007911130000000048e+04
-3.007598089999999866e+04
-3.007826450000000114e+04
-3.007980740000000151e+04
-3.008193159999999989e+04
-3.007786290000000008e+04
-3.007713989999999831e+04
-3.007898979999999938e+04
-3.007629200000000128e+04
-3.007805900000000111e+04
-3.007928329999999914e+04
-3.007547300000000178e+04
-3.007888109999999870e+04
-3.007687459999999919e+04
-3.007689930000000095e+04
-3.008198340000000098e+04
-3.007904999999999927e+04
-3.007747969999999987e+04
-3.007557920000000013e+04
-3.008216570000000138e+04
-3.008179219999999987e+04
-3.007543920000000071e+04
-3.007492359999999826e+04
-3.007882930000000124e+04
-3.007636609999999928e+04
-3.007817220000000088e+04
-3.007730730000000040e+04
-3.007551659999999902e+04
-3.007727890000000116e+04
-3.007754520000000048e+04
-3.007872920000000158e+04
-3.007777869999999893e+04
-3.008190369999999893e+04
-3.007662080000000060e+04
-3.007513729999999850e+04
-3.007690020000000004e+04
-3.007673500000000058e+04
-3.007333050000000003e+04
-3.007656580000000031e+04
-3.007939280000000144e+04
-3.007628250000000116e+04
-3.008206920000000173e+04
-3.008094889999999941e+04
-3.007677999999999884e+04
-3.007663629999999830e+04
-3.008035589999999866e+04
-3.008281850000000122e+04
-3.007575000000000000e+04
-3.007719989999999962e+04
-3.007800140000000101e+04
-3.008214050000000134e+04
-3.007815769999999975e+04
-3.007781279999999970e+04
-3.007602929999999833e+04
-3.007427309999999852e+04
-3.007565209999999934e+04
-3.007754829999999856e+04
-3.007790299999999843e+04
-3.007388650000000052e+04
-3.007532549999999901e+04
-3.007662830000000031e+04
-3.007502160000000003e+04
-3.007846700000000055e+04
-3.007725010000000111e+04
-3.007561400000000140e+04
-3.007378499999999985e+04
-3.007786990000000151e+04
-3.007511829999999827e+04
-3.007854160000000047e+04
-3.007646960000000036e+04
-3.007642559999999867e+04
-3.007787909999999829e+04
-3.007904209999999875e+04
-3.008006079999999929e+04
-3.007591809999999896e+04
-3.008091800000000148e+04
-3.008121800000000076e+04
-3.007666890000000058e+04
-3.007789040000000023e+04
-3.007608039999999892e+04
-3.007615629999999874e+04
-3.007765429999999833e+04
-3.007650370000000112e+04
-3.007596730000000025e+04
-3.008051310000000012e+04
-3.007711260000000038e+04
-3.007717490000000180e+04
-3.007686850000000049e+04
-3.008029369999999835e+04
-3.007120349999999962e+04
-3.007867250000000058e+04
-3.007845349999999962e+04
-3.007577479999999923e+04
-3.007464349999999831e+04
-3.007428470000000016e+04
-3.007599060000000100e+04
-3.007691040000000066e+04
-3.007650879999999961e+04
-3.007970160000000033e+04
-3.007700960000000123e+04
-3.007849150000000009e+04
-3.007742659999999887e+04
-3.007581120000000010e+04
-3.007660870000000068e+04
-3.007587540000000081e+04
-3.007717079999999987e+04
-3.008032019999999829e+04
-3.007882340000000113e+04
-3.007659059999999954e+04
-3.008245089999999982e+04
-3.007721830000000045e+04
-3.008199590000000171e+04
-3.007676550000000134e+04
-3.007879969999999958e+04
-3.007569420000000173e+04
-3.007879030000000057e+04
-3.007749390000000130e+04
-3.007876540000000023e+04
-3.007437180000000080e+04
-3.007312519999999859e+04
-3.007543630000000121e+04
-3.007847279999999955e+04
-3.007810570000000007e+04
-3.007371010000000024e+04
-3.007922220000000016e+04
-3.007890039999999863e+04
-3.007763880000000063e+04
-3.008017329999999856e+04
-3.007950300000000061e+04
-3.007844680000000153e+04
-3.007547820000000138e+04
-3.007581230000000141e+04
-3.007885749999999825e+04
-3.007857519999999931e+04
-3.007725930000000153e+04
-3.007628629999999976e+04
-3.007776610000000073e+04
-3.007730700000000070e+04
-3.007424139999999898e+04
-3.007888130000000092e+04
-3.007354650000000038e+04
-3.007899720000000161e+04
-3.007998589999999967e+04
-3.007534690000000046e+04
-3.007759820000000036e+04
-3.007319480000000112e+04
-3.007762779999999839e+04
-3.008119299999999930e+04
-3.007693059999999969e+04
-3.007577890000000116e+04
-3.007650479999999880e+04
-3.007907070000000022e+04
-3.007655549999999857e+04
-3.007926259999999820e+04
-3.007594589999999880e+04
-3.007800200000000041e+04
-3.007669220000000132e+04
-3.008050110000000132e+04
-3.007745460000000094e+04
-3.007655210000000079e+04
-3.007680380000000150e+04
-3.007854320000000007e+04
-3.007836049999999886e+04
-3.008096359999999913e+04
-3.007271359999999913e+04
-3.007609579999999914e+04
-3.007465020000000004e+04
-3.007729520000000048e+04
-3.008067680000000109e+04
-3.007616259999999966e+04
-3.007832909999999902e+04
-3.007409700000000157e+04
-3.008023300000000017e+04
-3.007858420000000115e+04
-3.008189949999999953e+04
-3.007548440000000119e+04
-3.007741440000000148e+04
-3.007408910000000105e+04
-3.007648760000000038e+04
-3.007255329999999958e+04
-3.007443400000000111e+04
-3.007566479999999865e+04
-3.007842160000000149e+04
-3.007338360000000102e+04
-3.007841479999999865e+04
-3.007483859999999913e+04
-3.007875979999999981e+04
-3.007615710000000036e+04
-3.007712779999999839e+04
-3.007918059999999969e+04
-3.007938680000000022e+04
-3.007979539999999906e+04
-3.007683050000000003e+04
-3.007758569999999963e+04
-3.007890020000000004e+04
-3.007618130000000019e+04
-3.007732319999999891e+04
-3.007879509999999937e+04
-3.007602490000000034e+04
-3.007790650000000096e+04
-3.008039319999999861e+04
-3.007496640000000116e+04
-3.007802319999999963e+04
-3.008082410000000164e+04
-3.007769729999999981e+04
-3.007781230000000141e+04
-3.007766849999999977e+04
-3.007622820000000138e+04
-3.007968830000000162e+04
-3.007677230000000054e+04
-3.007496809999999823e+04
-3.007866159999999945e+04
-3.008065149999999994e+04
-3.007643309999999838e+04
-3.007903120000000126e+04
-3.007672019999999975e+04
-3.007517850000000180e+04
-3.007650189999999930e+04
-3.007571970000000147e+04
-3.008027679999999964e+04
-3.007573029999999926e+04
-3.007861909999999989e+04
-3.007761469999999827e+04
-3.007640020000000004e+04
-3.007548919999999998e+04
-3.007954609999999957e+04
-3.008042450000000099e+04
-3.007752059999999983e+04
-3.007975249999999869e+04
-3.007695639999999912e+04
-3.008077899999999863e+04
-3.007913230000000112e+04
-3.007655930000000080e+04
-3.007604100000000108e+04
-3.007754579999999987e+04
-3.007877860000000146e+04
-3.007717250000000058e+04
-3.007916609999999855e+04
-3.007908350000000064e+04
-3.007645599999999831e+04
-3.007773909999999887e+04
-3.007852430000000095e+04
-3.007922710000000006e+04
-3.007760810000000129e+04
-3.007826350000000093e+04
-3.007753090000000157e+04
-3.007587879999999859e+04
-3.007770579999999973e+04
-3.008034279999999853e+04
-3.007472019999999975e+04
-3.007739089999999851e+04
-3.006974269999999888e+04
-3.007717390000000159e+04
-3.007867569999999978e+04
-3.007850019999999859e+04
-3.007678949999999895e+04
-3.007643079999999827e+04
-3.007670799999999872e+04
-3.007672190000000046e+04
-3.007650270000000091e+04
-3.007927230000000054e+04
-3.007395690000000104e+04
-3.007525820000000022e+04
-3.007976580000000104e+04
-3.007165910000000076e+04
-3.007809600000000137e+04
-3.007560450000000128e+04
-3.007857430000000022e+04
-3.007589270000000033e+04
-3.007683239999999932e+04
-3.007473280000000159e+04
-3.007830939999999828e+04
-3.007986739999999918e+04
-3.007544910000000164e+04
-3.007553510000000097e+04
-3.007445449999999983e+04
-3.007890750000000116e+04
-3.007982180000000153e+04
-3.007719190000000162e+04
-3.007909430000000066e+04
-3.007726750000000175e+04
-3.007388200000000143e+04
-3.007873020000000179e+04
-3.007509059999999954e+04
-3.007770379999999932e+04
-3.007955210000000079e+04
-3.007556539999999950e+04
-3.007593240000000151e+04
-3.007722839999999997e+04
-3.007256999999999971e+04
-3.008141519999999946e+04
-3.007462770000000091e+04
-3.007808640000000014e+04
-3.007762610000000132e+04
-3.007627349999999933e+04
-3.007857540000000154e+04
-3.008091639999999825e+04
-3.007730730000000040e+04
-3.007493110000000161e+04
-3.007891900000000169e+04
-3.007570550000000003e+04
-3.008165529999999853e+04
-3.007784360000000015e+04
-3.008005579999999827e+04
-3.007336660000000120e+04
-3.007654439999999886e+04
-3.007795279999999912e+04
-3.008075319999999920e+04
-3.008000470000000132e+04
-3.007946549999999843e+04
-3.007131149999999980e+04
-3.007505879999999888e+04
-3.007227500000000146e+04
-3.007323370000000068e+04
-3.007705990000000020e+04
-3.007336370000000170e+04
-3.007587629999999990e+04
-3.007738980000000083e+04
-3.007769559999999910e+04
-3.007706899999999951e+04
-3.008021879999999874e+04
-3.008070599999999831e+04
-3.007868660000000091e+04
-3.007960979999999836e+04
-3.007841830000000118e+04
-3.007649669999999969e+04
-3.007790239999999903e+04
-3.007721949999999924e+04
-3.007641040000000066e+04
-3.007486319999999978e+04
-3.007530710000000181e+04
-3.007643549999999959e+04
-3.007877419999999984e+04
-3.007526529999999912e+04
-3.007417180000000008e+04
-3.007436170000000129e+04
-3.008314129999999932e+04
-3.007819199999999910e+04
-3.007903419999999824e+04
-3.007702479999999923e+04
-3.007084080000000176e+04
-3.007681959999999890e+04
-3.007365429999999833e+04
-3.007921229999999923e+04
-3.007791470000000118e+04
-3.007971610000000146e+04
-3.007566029999999955e+04
-3.008232760000000053e+04
-3.007674799999999959e+04
-3.007801919999999882e+04
-3.007679550000000017e+04
-3.007773340000000098e+04
-3.007753480000000127e+04
-3.007637459999999919e+04
-3.007734909999999945e+04
-3.007551099999999860e+04
-3.007689119999999821e+04
-3.007593750000000000e+04
-3.007671640000000116e+04
-3.007782070000000022e+04
-3.007566570000000138e+04
-3.007981450000000041e+04
-3.007884769999999844e+04
-3.007591419999999925e+04
-3.007475700000000143e+04
-3.007350379999999859e+04
-3.007894420000000173e+04
-3.007709739999999874e+04
-3.007846549999999843e+04
-3.007842569999999978e+04
-3.007819710000000123e+04
-3.007804780000000028e+04
-3.007061049999999886e+04
-3.007265740000000005e+04
-3.007795040000000154e+04
-3.007622179999999935e+04
-3.007603889999999956e+04
-3.007541340000000127e+04
-3.007550999999999840e+04
-3.007097499999999854e+04
-3.007193620000000010e+04
-3.007821129999999903e+04
-3.007221050000000105e+04
-3.007812050000000090e+04
-3.007319340000000011e+04
-3.007672759999999835e+04
-3.007581090000000040e+04
-3.007709240000000136e+04
-3.007819629999999961e+04
-3.007706869999999981e+04
-3.008058780000000115e+04
-3.007729330000000118e+04
-3.007645560000000114e+04
-3.007811160000000018e+04
-3.007812289999999848e+04
-3.007775839999999880e+04
-3.007621010000000024e+04
-3.007729119999999966e+04
-3.007900289999999950e+04
-3.007816779999999926e+04
-3.007867209999999977e+04
-3.007758680000000095e+04
-3.007506480000000010e+04
-3.007433009999999922e+04
-3.007713130000000092e+04
-3.007982969999999841e+04
-3.007909519999999975e+04
-3.007837679999999818e+04
-3.007602590000000055e+04
-3.008150969999999870e+04
-3.007913399999999820e+04
-3.007845160000000033e+04
-3.007927279999999882e+04
-3.007468700000000172e+04
-3.007663769999999931e+04
-3.007548939999999857e+04
-3.007580960000000050e+04
-3.007838620000000083e+04
-3.007558740000000034e+04
-3.007761300000000119e+04
-3.007436929999999847e+04
-3.007859349999999904e+04
-3.007432259999999951e+04
-3.007903269999999975e+04
-3.007603050000000076e+04
-3.007533039999999892e+04
-3.007634779999999955e+04
-3.007687389999999868e+04
-3.007991540000000168e+04
-3.007783510000000024e+04
-3.007594919999999911e+04
-3.007604369999999835e+04
-3.007681750000000102e+04
-3.007432779999999912e+04
-3.007518690000000061e+04
-3.007968100000000049e+04
-3.007753600000000006e+04
-3.007658870000000024e+04
-3.007504200000000128e+04
-3.007884019999999873e+04
-3.007894029999999839e+04
-3.007790269999999873e+04
-3.007244559999999910e+04
-3.008025200000000041e+04
-3.007406149999999980e+04
-3.007680700000000070e+04
-3.007652779999999984e+04
-3.007835770000000048e+04
-3.007645980000000054e+04
-3.007666440000000148e+04
-3.007546849999999904e+04
-3.007732530000000042e+04
-3.007924150000000009e+04
-3.007630770000000120e+04
-3.007563560000000143e+04
-3.007516679999999906e+04
-3.007576020000000062e+04
-3.007603229999999894e+04
-3.008085840000000098e+04
-3.007997439999999915e+04
-3.007678700000000026e+04
-3.007690899999999965e+04
-3.007935889999999927e+04
-3.008000969999999870e+04
-3.007820690000000104e+04
-3.007873259999999937e+04
-3.007937380000000121e+04
-3.007956669999999940e+04
-3.007807869999999821e+04
-3.007616249999999854e+04
-3.007783829999999944e+04
-3.007711149999999907e+04
-3.007472130000000107e+04
-3.007874420000000100e+04
-3.007945209999999861e+04
-3.007847720000000118e+04
-3.007824209999999948e+04
-3.007697369999999864e+04
-3.007966389999999956e+04
-3.007821700000000055e+04
-3.007507579999999871e+04
-3.007513390000000072e+04
-3.007597869999999966e+04
-3.007633420000000115e+04
-3.007311980000000040e+04
-3.008191149999999834e+04
-3.007834739999999874e+04
-3.007920479999999952e+04
-3.007458239999999932e+04
-3.007150100000000020e+04
-3.007467810000000100e+04
-3.007562909999999829e+04
-3.007649959999999919e+04
-3.007775210000000152e+04
-3.007748359999999957e+04
-3.007675960000000123e+04
-3.008087329999999929e+04
-3.007696189999999842e+04
-3.007573029999999926e+04
-3.007448540000000139e+04
-3.007506769999999960e+04
-3.007855240000000049e+04
-3.007732700000000114e+04
-3.007770560000000114e+04
-3.007471240000000034e+04
-3.007797430000000168e+04
-3.007299699999999939e+04
-3.007889819999999963e+04
-3.007745109999999841e+04
-3.007691189999999915e+04
-3.007488130000000092e+04
-3.007467130000000179e+04
-3.007691990000000078e+04
-3.007935150000000067e+04
-3.007746340000000055e+04
-3.007408520000000135e+04
-3.007714519999999902e+04
-3.007922490000000107e+04
-3.007881330000000162e+04
-3.007708450000000084e+04
-3.007371470000000045e+04
-3.007698140000000058e+04
-3.007362749999999869e+04
-3.007955510000000140e+04
-3.007773860000000059e+04
