-2.838492950545999705e+01 -2.092572340267199493e+01 6.606505920079999150e+00 -2.092572340267199493e+01 -5.132909410638899317e+01 9.756119207559999396e+00 6.604585424172999986e+00 9.756119207559999396e+00 -2.996165664510699855e+01
-3.876328938688799752e+01 1.128099295771799859e+01 -5.050904235409999110e+00 1.128099295771799859e+01 -7.212998527510599445e+01 -6.877295842966999473e+00 -5.050904235409999110e+00 -6.877295842966999473e+00 -4.656626425702899752e+01
-2.761673114265999729e+01 1.913966220916199745e+01 1.309778208573999692e+01 1.913966220916199745e+01 -4.962177324506599518e+01 -1.881125740906499644e+01 1.309778208573999692e+01 -1.881125740906499644e+01 -3.464382566637299732e+01
-4.292116302554299523e+01 -8.932226463456998999e+00 -4.916469521919999863e+00 -8.932226463456998999e+00 -5.031123127567899900e+01 -7.372783786972998854e+00 -4.916469521919999863e+00 -7.372783786972998854e+00 -5.774355043576899504e+01
-2.407533669015199607e+01 -2.112353448109299592e+01 4.732101914847999247e+00 -2.112353448109299592e+01 -1.462265583589799789e+01 8.079526280748998701e+00 4.732101914847999247e+00 8.079526280748998701e+00 -2.521611125890999716e+01
-5.212609990779399283e+01 5.552153667136999537e+00 6.986764109665999811e+00 5.554074163043999590e+00 -1.521416857525399813e+01 -4.620713152241999744e+00 6.986764109665999811e+00 -4.620713152241999744e+00 -7.084517351332299029e+01
-4.816411685165299161e+01 -2.287694724418399872e+01 -1.178416288535199818e+01 -2.287694724418399872e+01 -4.918774117008399571e+01 -5.008653325455999727e+00 -1.178224238944499902e+01 -5.008653325455999727e+00 -4.892463323082499471e+01
-3.939705303619799537e+01 1.379492209998099916e+01 -3.527950981158999522e+00 1.379492209998099916e+01 -2.071062786108799614e+01 7.042458490968999563e+00 -3.526030485251999469e+00 7.042458490968999563e+00 -5.881902814368899612e+01
-7.371439439838098906e+01 -3.307093951853999680e+00 4.872298116058999540e+00 -3.307093951853999680e+00 -6.708484252741698128e+01 -4.111781736886999994e+00 4.872298116058999540e+00 -4.111781736886999994e+00 -6.585572514693699020e+01
-2.219133020538499679e+01 -5.584802097555999545e+00 -9.702345322163999697e+00 -5.584802097555999545e+00 -2.710203823958399738e+01 1.017094632347200012e+01 -9.702345322163999697e+00 1.017094632347200012e+01 -4.761485502225099253e+01
-4.837153040960899375e+01 -4.795478279778999209e+00 -1.505668791087999780e+00 -4.795478279778999209e+00 -3.709629893961199798e+01 -2.686389674711599795e+01 -1.505668791087999780e+00 -2.686389674711599795e+01 -4.860583091026299485e+01
-5.194749378844299059e+01 7.023253531898999036e+00 -5.098916633084998651e+00 7.025174027805999089e+00 -5.675641553957099461e+01 9.379702009787999728e+00 -5.098916633084998651e+00 9.379702009787999728e+00 -3.860388822660699759e+01
-6.690815690397299420e+01 5.123883079875999336e+00 -7.232587585761998561e+00 5.123883079875999336e+00 -4.441722933709599630e+01 1.325910374192799956e+01 -7.232587585761998561e+00 1.326102423783499695e+01 -3.768012969533999268e+01
-2.184372044621799702e+01 -2.392937900121999473e+00 4.317274798935999414e+00 -2.392937900121999473e+00 -4.392366188899699608e+01 1.491265071785499785e+01 4.317274798935999414e+00 1.491265071785499785e+01 -3.386794531994500090e+01
-4.495880918286999162e+01 6.618028895521998578e+00 8.406010584938998775e+00 6.618028895521998578e+00 -5.787798514925899696e+01 9.823336564304998575e+00 8.406010584938998775e+00 9.823336564304998575e+00 -4.970435456906699301e+01
-4.063577289621299826e+01 -4.628395135869999288e-01 -2.127909464955999752e+00 -4.628395135869999288e-01 -2.465916744587999787e+01 -2.400043734977899490e+01 -2.127909464955999752e+00 -2.400043734977899490e+01 -3.197817734745699525e+01
-6.205506374698398986e+01 1.186098272163199852e+01 8.655675052848998519e+00 1.186098272163199852e+01 -4.375657874508799239e+01 8.327270252751997504e+00 8.655675052848998519e+00 8.327270252751997504e+00 -5.836963210145098913e+01
-5.512015302680699591e+01 1.240064207149899822e+01 -1.186866470525999695e+00 1.240064207149899822e+01 -5.387951267088499208e+01 -7.758803464279999673e+00 -1.186866470525999695e+00 -7.758803464279999673e+00 -5.092386947001199360e+01
-1.765511887305099847e+01 -5.740362266022999371e+00 -4.993289358199999306e+00 -5.740362266022999371e+00 -3.968704791815499533e+01 -3.983108511117999129e+00 -4.993289358199999306e+00 -3.983108511117999129e+00 -3.478594236349099589e+01
-5.755726233278999615e+01 1.179760635670099944e+01 9.917440863747998492e+00 1.179568586079399850e+01 -7.064160094718100424e+01 1.899754551204399888e+01 9.917440863747998492e+00 1.899946600795099982e+01 -5.445374094707799628e+01
-4.162866928013199441e+01 -1.136549477762599736e+01 1.081239195640999817e+01 -1.136549477762599736e+01 -3.468415608041999576e+01 -2.632999888496999841e+00 1.081239195640999817e+01 -2.632999888496999841e+00 -3.391787821352699694e+01
-1.255620223996599982e+01 -1.178224238944499902e+01 1.430385351533599803e+01 -1.178224238944499902e+01 -2.482048910206799519e+01 -3.796820408138999792e+00 1.430385351533599803e+01 -3.796820408138999792e+00 -2.922034522500499421e+01
-5.065692053893899782e+01 7.328612381111999419e+00 1.728446316299999808e+01 7.328612381111999419e+00 -6.524692794441799037e+01 -9.493011268301000172e+00 1.728446316299999808e+01 -9.493011268301000172e+00 -5.275602256528999590e+01
-3.297299422728299589e+01 -2.831579165280799515e+01 -3.723841563672999566e+00 -2.831579165280799515e+01 -3.213949900364499257e+01 -2.425586330540999924e+00 -3.723841563672999566e+00 -2.425586330540999924e+00 -4.038418793239599580e+01
-5.505101517415499046e+01 8.669118524197997999e+00 9.564069616859998124e-01 8.669118524197997999e+00 -5.068956896935799250e+01 -9.060899689225998088e+00 9.564069616859998124e-01 -9.058979193318998924e+00 -4.983686878664999398e+01
-2.811221908666599489e+01 3.059349979850999546e+00 -1.677937273945899932e+01 3.059349979850999546e+00 -5.210881544463099857e+01 1.618209851238199803e+01 -1.677937273945899932e+01 1.618209851238199803e+01 -4.398127676620699589e+01
-6.655094466527100394e+01 1.580568131460999659e+01 1.853662649436400045e+01 1.580568131460999659e+01 -3.643180735578999929e+01 2.335323022911999669e+00 1.853662649436400045e+01 2.335323022911999669e+00 -3.686775992667899260e+01
-4.787412196969599165e+01 -6.739020137662999232e+00 1.882085988859999759e+01 -6.739020137662999232e+00 -2.521227026709599883e+01 -3.502984534367999725e+00 1.882085988859999759e+01 -3.502984534367999725e+00 -2.225086557850199753e+01
-4.434040950081599419e+01 -5.116201096248000013e+00 -1.832345144868699549e+01 -5.116201096248000013e+00 -4.421941825867499176e+01 1.122337808050799879e+01 -1.832153095277999810e+01 1.122337808050799879e+01 -1.431921748259199845e+01
-6.581347423698299792e+01 1.185138024209699914e+01 1.227388934163699830e+01 1.185138024209699914e+01 -4.026895817797599619e+01 5.773010696441999379e+00 1.227388934163699830e+01 5.773010696441999379e+00 -5.036692565698199076e+01
-5.755150084506899333e+01 -2.172080870816999632e+00 1.634918165629099818e+01 -2.172080870816999632e+00 -6.379887403053999151e+01 -1.282315117103899738e+01 1.634918165629099818e+01 -1.282315117103899738e+01 -7.295579851511598690e+01
-3.261962298039499331e+01 -1.243521099782499739e+01 7.242190065296998824e+00 -1.243521099782499739e+01 -3.118501253786599392e+01 -1.903403493427699544e+01 7.242190065296998824e+00 -1.903403493427699544e+01 -2.875366471960399650e+01
-3.265035091490699415e+01 -2.468989538039199516e+01 -5.940093840350998633e+00 -2.468989538039199516e+01 -2.194550672928899715e+01 2.592669474449999623e+00 -5.940093840350998633e+00 2.592669474449999623e+00 -4.234117326162899531e+01
-4.197819953520599512e+01 -6.247373185470999069e+00 -4.801239767499999367e+00 -6.247373185470999069e+00 -4.582879382874099150e+01 1.252931529726799909e+01 -4.801239767499999367e+00 1.252931529726799909e+01 -4.438266041076999358e+01
-3.702716108695999253e+01 1.023624318430999880e+00 6.775509559895999345e+00 1.023624318430999880e+00 -3.705020703784399672e+01 4.311513311214999256e+00 6.775509559895999345e+00 4.311513311214999256e+00 1.665069951368999934e+00
-6.750159013923598650e+01 -4.532370340519999430e-01 -1.231421975568399851e+01 -4.532370340519999430e-01 -2.878631315002299829e+01 -6.548891042869998458e+00 -1.231421975568399851e+01 -6.548891042869998458e+00 -2.896107827755999509e+01
-4.121000117240599536e+01 1.390823135849399783e+01 2.410990561647799524e+01 1.390823135849399783e+01 -3.051860045813699429e+01 -3.725762059579999619e+00 2.410990561647799524e+01 -3.725762059579999619e+00 -3.228161570076299824e+01
-5.996172320835399461e+01 2.154796407653999601e+00 -1.649705984112999735e+00 2.154796407653999601e+00 -6.390066031361098453e+01 -4.632236127683999172e+00 -1.649705984112999735e+00 -4.632236127683999172e+00 -2.930484704491299652e+01
-4.330526220694299155e+01 6.084131033375999031e+00 1.275401331838699903e+01 6.084131033375999031e+00 -7.956614542700998882e+00 -1.047822566859199789e+01 1.275401331838699903e+01 -1.047822566859199789e+01 -2.365666858242599702e+01
-5.301528951273499501e+01 2.665648318915999404e+00 9.502613747835999547e+00 2.667568814822999901e+00 -3.187062957666499230e+01 -2.015176355215099946e+01 9.502613747835999547e+00 -2.015176355215099946e+01 -4.227587640079099884e+01
-1.649129835340899675e+01 1.568276957656199677e+01 1.482622840203999814e+00 1.568276957656199677e+01 -6.257743863368799708e+01 4.678328029451998660e+00 1.482622840203999814e+00 4.678328029451998660e+00 -4.131562844729099737e+01
-2.666800616460199791e+01 -8.876532082154000136e+00 -2.270026162074000098e+00 -8.876532082154000136e+00 -7.101225665723200109e+01 2.638761376217999555e+00 -2.270026162074000098e+00 2.638761376217999555e+00 -2.874790323188299723e+01
-3.837534921367399221e+01 2.930676754081999569e+00 -7.706950074790999139e+00 2.930676754081999569e+00 -4.225667144172099654e+01 1.347996077123299763e+01 -7.708870570697999192e+00 1.347996077123299763e+01 -3.350497159352199361e+01
-5.337250175143699238e+01 1.120225262553099732e+01 -8.112174711168000485e+00 1.120225262553099732e+01 -4.498953711738199246e+01 -6.956036175153998968e+00 -8.112174711168000485e+00 -6.956036175153998968e+00 -4.013452346448599428e+01
-4.525840654436199628e+01 -1.180528834032899788e+01 -1.326678572555599800e+01 -1.180720883623599882e+01 -4.775121023164799539e+01 1.488384327924999795e+01 -1.326678572555599800e+01 1.488384327924999795e+01 -4.586912424278798994e+01
-2.225278607440899847e+01 -1.093146270264399789e+01 2.111585249746499571e+01 -1.093146270264399789e+01 -4.380843213457699648e+01 -2.402540379656999736e+00 2.111585249746499571e+01 -2.402540379656999736e+00 -2.014024057670899737e+01
-7.224137403771197796e+01 8.127538678423999130e+00 -1.778379209881999712e+00 8.127538678423999130e+00 -6.167480555739798831e+01 -6.320352029936999294e+00 -1.778379209881999712e+00 -6.320352029936999294e+00 -5.081056021149899493e+01
-2.295376708046399727e+01 7.701188587069999203e-01 -4.893423571035999231e+00 7.701188587069999203e-01 -2.173233168361199574e+01 -1.396200524388999886e+00 -4.893423571035999231e+00 -1.396200524388999886e+00 -2.937974638528599769e+01
-6.952771332112098435e+01 8.974477373410998382e+00 -5.477254326763999259e+00 8.974477373410998382e+00 -5.599781965630599245e+01 3.301332464132999522e+00 -5.477254326763999259e+00 3.301332464132999522e+00 -5.351077745674098907e+01
-4.158257737836400025e+01 -1.022472020886799804e+01 1.207991925502999830e+00 -1.022472020886799804e+01 -5.673529008459399137e+01 -1.565012114614299854e+01 1.207991925502999830e+00 -1.565012114614299854e+01 -4.361254155206299288e+01
-5.830625573651999360e+01 -2.185524342165999556e+00 -1.807186648486999836e+00 -2.185524342165999556e+00 -2.609377788840899726e+01 -5.204543907969998440e-01 -1.807186648486999836e+00 -5.204543907969998440e-01 -1.703095770327599467e+01
-2.891498637579199738e+01 6.810078486221999405e+00 6.362602939890999565e+00 6.810078486221999405e+00 -3.615717644108899265e+01 5.991947229839999167e+00 6.362602939890999565e+00 5.991947229839999167e+00 -6.678140417411098895e+01
-2.657966335287999637e+00 5.842148549093999499e+00 -2.817367495568999569e+00 5.842148549093999499e+00 -9.218380353599998633e-01 -1.769352879119099953e+01 -2.817367495568999569e+00 -1.769352879119099953e+01 -2.534670498058599719e+01
-4.120039869287099776e+01 -6.650677325940999474e+00 4.499721910100999089e+00 -6.650677325940999474e+00 -3.843296409088399201e+01 4.167476118189999412e-01 4.499721910100999089e+00 4.167476118189999412e-01 -5.873836731559499214e+01
-5.630509900142599378e+01 -1.439987831068599888e+01 -2.054930620489999749e-01 -1.439987831068599888e+01 -1.808915094803299795e+01 1.580376081870299920e+01 -2.054930620489999749e-01 1.580376081870299920e+01 -3.641836388444099981e+01
-5.123306931103899586e+01 3.654703711020999446e+00 -1.380068358770199843e+01 3.654703711020999446e+00 -4.365863345383099414e+01 8.807394229501998240e+00 -1.380068358770199843e+01 8.807394229501998240e+00 -2.232768541478199609e+01
-6.762066088546998799e+01 1.862496930608599754e+01 -4.536211332333999202e+00 1.862496930608599754e+01 -1.397928970705299889e+01 2.559060796077499589e+01 -4.536211332333999202e+00 2.559060796077499589e+01 -2.866148091606799753e+01
-3.554837923856999282e+01 6.819680965756998781e+00 -1.978110784209999584e-01 6.819680965756998781e+00 -4.280401277521599468e+01 9.466124325602999434e+00 -1.978110784209999584e-01 9.466124325602999434e+00 -3.645485330667399637e+01
-3.334172944142699890e+01 1.088921179268999850e+01 1.385061648128399803e+01 1.089113228859699767e+01 -3.346848217128899705e+01 -4.513165381449999458e-01 1.385061648128399803e+01 -4.532370340519999430e-01 -1.804113855035799574e+01
-2.056274967624899475e+01 3.760330985905999679e+00 4.762829849359999645e-01 3.760330985905999679e+00 -3.316120282616899573e+01 3.182261717898999809e+00 4.762829849359999645e-01 3.182261717898999809e+00 -2.032652867968799626e+01
-1.890344121260099541e+01 2.427506826447999533e+00 1.578647635553999784e+00 2.427506826447999533e+00 -2.058963661894699726e+01 9.203016386344000210e+00 1.578647635553999784e+00 9.203016386344000210e+00 -1.007492152812199748e+01
-4.435001198035099179e+01 1.304208770443699805e+01 5.991947229839998945e-01 1.304208770443699805e+01 -6.403317453119399261e+01 1.472060112715499791e+01 5.991947229839998945e-01 1.472060112715499791e+01 -1.854046748617799523e+01
-3.220095487266899426e+01 -1.453623352008299818e+01 4.839649685639999532e+00 -1.453623352008299818e+01 -3.667186934416499611e+01 1.229117380479999966e+00 4.839649685639999532e+00 1.229117380479999966e+00 -3.657584454881499170e+01
-4.992137060655799274e+01 -8.381044138147998979e+00 1.471676013534099781e+01 -8.381044138147998979e+00 -5.122922831922499398e+01 8.651834061035000190e+00 1.471676013534099781e+01 8.649913565127999249e+00 -5.115048798703799804e+01
-4.243911855288599355e+01 -8.857327123083997833e+00 5.876717475419999115e-01 -8.857327123083997833e+00 -4.069530826932999901e+01 -2.385255916493999706e+00 5.876717475419999115e-01 -2.385255916493999706e+00 -6.160566770474599707e+01
-4.695420443024298862e+01 -3.710398092323999197e+00 -3.994631486559999112e-01 -3.710398092323999197e+00 -2.868452686695199461e+01 -1.668526844001599585e+01 -3.994631486559999112e-01 -1.668526844001599585e+01 -4.400816370890499485e+01
-5.449983284884599755e+01 -1.169582007362999754e+01 -1.780875854561099914e+01 -1.169582007362999754e+01 -6.706947856016100218e+01 -1.436530938435999660e+00 -1.780683804970399819e+01 -1.436530938435999660e+00 -4.971971853632299343e+01
-2.236609533292199714e+01 -1.626660033228999769e+00 4.048405371956000032e+00 -1.626660033228999769e+00 -2.979841449301199674e+01 -1.236799364107999999e+01 4.048405371956000032e+00 -1.236799364107999999e+01 -1.771081325435399734e+01
-6.202433581247198902e+01 3.787217928603999084e+00 -1.192435908656299937e+01 3.787217928603999084e+00 -3.066071715525499641e+01 3.860196773069999865e-01 -1.192627958246999853e+01 3.860196773069999865e-01 -3.756489994092000018e+01
-9.999061939795498688e+01 -1.861152583473699806e+01 1.135205130627699788e+01 -1.861152583473699806e+01 -6.492236413613500190e+01 2.302674592492999661e+00 1.135205130627699788e+01 2.302674592492999661e+00 -8.145207240768398549e+01
-2.389288957898699906e+01 -5.696190860161999048e+00 3.456892632599999904e-01 -5.696190860161999048e+00 -3.348576663445199841e+01 -1.813332235389399827e+01 3.456892632599999904e-01 -1.813140185798699733e+01 -4.442491132072399296e+01
-4.397551527848600017e+01 1.913966220916199745e+01 -6.858090883896998946e+00 1.913966220916199745e+01 -3.529679427475299747e+01 1.332055961095199947e+01 -6.858090883896998946e+00 1.332055961095199947e+01 -5.476678177991899332e+01
-1.636070463173300027e+01 -7.658937677115999598e+00 2.767434601986999532e+00 -7.658937677115999598e+00 -2.430963719080599716e+01 -9.704265818070998861e+00 2.767434601986999532e+00 -9.702345322163999697e+00 -1.290573249503999875e+01
-2.323800047469999797e+01 7.334373868832998689e+00 -6.606505920079999150e-01 7.334373868832998689e+00 -4.704062674605798833e+01 3.860196773069999865e-01 -6.606505920079999150e-01 3.860196773069999865e-01 -4.567131316436699251e+01
-3.310934943667999786e+00 2.721342700218999600e+00 -1.201462239419199918e+01 2.721342700218999600e+00 -1.714042596997499857e+01 -3.297491472318999417e+00 -1.201462239419199918e+01 -3.297491472318999417e+00 -3.010953482994599639e+01
-5.425785036456399268e+01 6.103335992445998670e+00 -7.176893204458998810e+00 6.103335992445998670e+00 -5.625132511602999585e+01 1.105821543250599959e+01 -7.178813700365998862e+00 1.105821543250599959e+01 -4.093152926589099394e+01
-4.211071375278898898e+01 -1.127139047818299922e+01 1.743810283555999652e+00 -1.127139047818299922e+01 -4.195131259250798905e+01 -7.334373868832998689e+00 1.743810283555999652e+00 -7.334373868832998689e+00 -5.147697229122799456e+01
-8.818149006581198535e+01 -2.139432440397999624e+00 -8.561570753405998602e+00 -2.139432440397999624e+00 -6.903798686483598601e+01 -3.741126026835999596e+00 -8.561570753405998602e+00 -3.741126026835999596e+00 -5.351461844855499805e+01
-6.031509445524199720e+01 6.320352029936999294e+00 -6.291544591331998504e+00 6.320352029936999294e+00 -4.603428689078999980e+01 7.499536516834998778e+00 -6.291544591331998504e+00 7.499536516834998778e+00 -6.618989143475499759e+01
-5.387759217497799114e+01 3.510666517995999492e+00 -6.952195183339999751e-01 3.510666517995999492e+00 -1.856351343706199586e+01 2.339164014725999330e+00 -6.952195183339999751e-01 2.339164014725999330e+00 -4.171701209185399506e+01
-2.765706155670699928e+01 -1.405803003923999928e+00 -1.216442107493799973e+01 -1.405803003923999928e+00 -5.751309092692899583e+01 3.088157418455999892e+00 -1.216442107493799973e+01 3.088157418455999892e+00 -2.768778949121899657e+01
-2.017096851122099821e+01 7.989262973119998223e-01 -2.477439720029999404e-01 7.989262973119998223e-01 -7.222985106226999186e+00 4.782034808429999062e-01 -2.477439720029999404e-01 4.782034808429999062e-01 -1.551376593674599746e+01
-6.660087755885299998e+01 -1.440948079022099826e+01 7.159608741295999224e+00 -1.440948079022099826e+01 -2.976192507077899663e+01 -4.278864880795999248e+00 7.161529237202999276e+00 -4.278864880795999248e+00 -3.489925162200399456e+01
-4.624554144055999672e+01 2.198967813514999481e+00 1.581144280233099941e+01 2.198967813514999481e+00 -6.893043909404399017e+01 3.001735102640999298e+00 1.580952230642399670e+01 3.001735102640999298e+00 -4.770895932169399600e+01
-3.613413049020499557e+01 6.414456329379999433e-01 -4.040723388327999821e+00 6.414456329379999433e-01 -3.882282476000499827e+01 2.030924421652499490e+01 -4.040723388327999821e+00 2.030924421652499490e+01 -3.015370623580699672e+01
-4.106212298756699397e+01 -3.748808010463999363e+00 -1.378916061225999812e+01 -3.748808010463999363e+00 -2.601695805212899515e+01 6.952195183339999751e-01 -1.378724011635299718e+01 6.952195183339999751e-01 -6.790681477561300028e+01
-3.882282476000499827e+01 2.026507281066399813e+01 -9.660094412209998538e-01 2.026507281066399813e+01 -5.622251767742498885e+01 8.872691090339999143e-01 -9.660094412209998538e-01 8.872691090339999143e-01 -4.333791063736199334e+01
-6.024211561077598986e+01 7.263315520273999404e+00 -1.772233622979599943e+01 7.263315520273999404e+00 -2.848287479671699884e+01 1.163820519641999729e+00 -1.772233622979599943e+01 1.163820519641999729e+00 -6.707331955197498985e+01
-4.728645022215399507e+01 8.782427782710998443e+00 1.735744200746599475e+01 8.782427782710998443e+00 -3.577115676378199538e+01 1.601693586437999750e+00 1.735744200746599475e+01 1.601693586437999750e+00 -6.826018602250098866e+01
-8.051102941325399343e+01 4.714817451684999661e+00 -4.378730667959999656e-01 4.714817451684999661e+00 -6.893235958995099111e+01 -1.112351229334399960e+01 -4.378730667959999656e-01 -1.112351229334399960e+01 -4.865192281203099611e+01
-3.668339231960699465e+01 -3.036304028966999358e+00 -5.876717475419998671e+00 -3.036304028966999358e+00 -2.509512001676899828e+01 2.915312786825999591e+00 -5.878637971326998723e+00 2.915312786825999591e+00 -2.632423739724899647e+01
-2.024394735568699843e+01 -1.019783326616999775e+00 5.072029690386999690e+00 -1.019783326616999775e+00 -2.671217757046299468e+01 1.896489708162499710e+01 5.072029690386999690e+00 1.896489708162499710e+01 -1.901482997520699669e+01
-6.411959684700899231e+01 -1.634342016856999891e+01 -1.633957917675599703e+01 -1.634342016856999891e+01 -4.949117952338999515e+01 -5.271761264714999839e+00 -1.633957917675599703e+01 -5.271761264714999839e+00 -3.555606122219799659e+01
-6.967751200186698668e+01 2.182643598305499921e+01 -7.013651052363998772e+00 2.182643598305499921e+01 -4.662772012605299210e+01 1.799504664858999847e+00 -7.013651052363998772e+00 1.799504664858999847e+00 -6.341477484913999518e+01
-4.425398718500099449e+01 -4.215488515864999286e+00 -4.724419931219999036e+00 -4.215488515864999286e+00 -3.709821943551899892e+01 1.005187557723799863e+01 -4.724419931219999036e+00 1.005187557723799863e+01 -4.849636264356399096e+01
-2.698680848516399777e+01 -5.216066883411999200e+00 2.984450639477999712e+00 -5.216066883411999200e+00 -5.024017292711999261e+01 -6.320352029936999294e+00 2.984450639477999712e+00 -6.320352029936999294e+00 -7.634739428687798579e+01
-4.925687902273599406e+01 -2.379878527954399914e+01 -5.782613175976998754e+00 -2.379878527954399914e+01 -6.900917942623098611e+01 2.120227481327999541e+00 -5.782613175976998754e+00 2.120227481327999541e+00 -6.567519853167898702e+01
-6.919930852102399399e+01 -1.370273829644499841e+01 1.169582007362999754e+01 -1.370273829644499841e+01 -3.854627334939699068e+01 -2.965245680407999629e+00 1.169582007362999754e+01 -2.965245680407999629e+00 -7.334757968014397989e+01
-4.045140528914099320e+01 6.120620455608999144e+00 2.790864652052399464e+01 6.120620455608999144e+00 -5.799129440777199562e+01 2.850015925987999577e+00 2.790864652052399464e+01 2.850015925987999577e+00 -7.278295388348598749e+01
-4.159986184152699451e+01 -6.788953031244998826e+00 -1.684082860848300101e+01 -6.788953031244998826e+00 -5.781460878432798722e+01 1.723068927760400015e+01 -1.684082860848300101e+01 1.723068927760400015e+01 -6.067038619803699362e+01
-5.413109763470199454e+01 -8.989841340666998803e+00 2.090651844360199618e+01 -8.989841340666998803e+00 -4.257355326637599546e+01 -5.761487720999999319e-03 2.090651844360199618e+01 -5.761487720999999319e-03 -4.465729132547099312e+01
-6.199936936568099100e+01 -1.029385806151999816e+00 -1.018631029072799876e+01 -1.029385806151999816e+00 -4.953150993743699360e+01 7.092391384550999156e+00 -1.018631029072799876e+01 7.090470888643999103e+00 -7.492046582797698306e+01
-4.520655315487299930e+01 5.145008534852999027e+00 -1.619554198373099752e+01 5.145008534852999027e+00 -3.551957179996500003e+01 -3.209148660596999658e+00 -1.619554198373099752e+01 -3.209148660596999658e+00 -3.254088264820799736e+01
-3.208764561415599559e+01 1.030922202877599858e+01 5.406195978204999086e+00 1.030922202877599858e+01 -6.452866247519999376e+01 -1.851934203120099909e+01 5.406195978204999086e+00 -1.851934203120099909e+01 -4.209727028143998950e+01
-6.529686083800000063e+01 8.964874893875999007e+00 -1.847517062533999610e+00 8.964874893875999007e+00 -2.148266721570199778e+01 4.724419931219999036e+00 -1.847517062533999610e+00 4.722499435312998983e+00 -3.869991302195699490e+01
-3.830237036920799198e+01 1.069332121017599846e+01 -1.920495906999999947e-01 1.069332121017599846e+01 -4.091424480272799258e+01 5.615530032067999500e+00 -1.920495906999999947e-01 5.615530032067999500e+00 -4.379882965504199177e+01
-5.471492839042999634e+01 -9.496852260114998501e+00 7.004048572828999397e+00 -9.496852260114998501e+00 -5.140399344676199433e+01 -1.190707462339999800e+01 7.004048572828999397e+00 -1.190707462339999800e+01 -7.287705818292899096e+01
-2.313429369572199690e+01 8.190915043354998204e+00 3.625896272415999544e+00 8.190915043354998204e+00 -9.275995230809997993e-01 -6.039959627514998708e+00 3.625896272415999544e+00 -6.041880123421998761e+00 -1.908972931557999431e+01
-4.080093554421499391e+01 1.615137057786999675e+00 3.580188469829399622e+01 1.615137057786999675e+00 -1.042061079138199986e+01 2.266569269441399825e+01 3.580188469829399622e+01 2.266569269441399825e+01 -3.231810512299599480e+01
-5.393136606037398906e+01 1.155370337651199719e+01 1.304208770443699805e+01 1.155370337651199719e+01 -6.965254555507598866e+01 -5.970821774862998588e+00 1.304208770443699805e+01 -5.970821774862998588e+00 -4.933369885901598906e+01
-4.231428631893099634e+01 1.011333144626199854e+01 -5.780692680069999589e+00 1.011333144626199854e+01 -5.823519738796099432e+01 -1.027273260654299847e+01 -5.780692680069999589e+00 -1.027273260654299847e+01 -8.180928464638598996e+01
-2.212795384045399416e+01 -3.264843041899999354e-02 -1.081239195640999906e+00 -3.264843041899999354e-02 -3.509898319633200003e+01 1.920495906999999773e-03 -1.081239195640999906e+00 1.920495906999999773e-03 -4.613799366976799377e+01
-5.014222763586299436e+01 -4.935674480989999391e-01 -1.373922771867799852e+01 -4.935674480989999391e-01 -2.883048455588399506e+01 1.476861352482999878e+00 -1.373922771867799852e+01 1.476861352482999878e+00 -2.794513594275699475e+01
-3.334172944142699890e+01 -4.853093156988999901e+00 8.561570753405998602e+00 -4.853093156988999901e+00 -7.569250518259097760e+01 1.663149455461999882e+00 8.561570753405998602e+00 1.663149455461999882e+00 -5.981384502351499322e+01
-4.949694101111099798e+01 -2.076248125057699667e+01 1.460537137273499830e+01 -2.076248125057699667e+01 -4.421557726686098988e+01 7.522582467718999411e+00 1.460537137273499830e+01 7.522582467718999411e+00 -9.259478966009798739e+01
-5.236424140026198870e+01 1.068371873064099908e+01 -1.582488627367999667e+00 1.068371873064099908e+01 -2.582298796552199605e+01 -2.638761376217999910e+01 -1.582488627367999667e+00 -2.638761376217999910e+01 -3.387562730357299046e+01
-5.454400425470699076e+01 6.068767066119998832e-01 4.146350663212999166e+00 6.068767066119998832e-01 -7.515476632863099837e+01 1.980799478479799802e+01 4.144430167306000001e+00 1.980799478479799802e+01 -3.828892689785899250e+01
-3.742086274789499356e+01 -5.398513994576999764e+00 -1.696950183425199654e+01 -5.398513994576999764e+00 -2.781838321289499660e+01 1.759366300402700034e+01 -1.696950183425199654e+01 1.759366300402700034e+01 -4.199932499018299126e+01
-4.581150936557799724e+01 1.321109134425299736e+01 1.300175729038999695e+00 1.321109134425299736e+01 -4.838881487277199511e+01 -7.255633536645999193e+00 1.300175729038999695e+00 -7.255633536645999193e+00 -3.139626708763599794e+01
-3.547155940228999782e+01 3.049747500315999726e+00 -1.121185510506599847e+01 3.049747500315999726e+00 -2.207225945915099530e+01 1.922992551679099549e+01 -1.121185510506599847e+01 1.922992551679099549e+01 -4.561177779124999176e+01
-2.869797033830099409e+01 6.260816656819998549e+00 -6.401012858030998842e+00 6.260816656819998549e+00 -4.953343043334399454e+01 6.487435173845999437e+00 -6.401012858030998842e+00 6.487435173845999437e+00 -4.972548002404398915e+01
-3.985221056615699098e+01 -1.259845314991999921e+00 1.048206666040599977e+01 -1.259845314991999921e+00 -3.248326777099799045e+01 7.916284128653998664e+00 1.048206666040599977e+01 7.916284128653998664e+00 -4.909171637473399841e+01
-5.686780430217699234e+01 -5.605927552532999236e+00 -1.169582007362999754e+01 -5.605927552532999236e+00 -2.644138764757599702e+01 -2.634920384403999449e+00 -1.169582007362999754e+01 -2.632999888496999841e+00 -6.479753190217998338e+01
-7.392180795633699120e+01 1.137701775306799767e+01 1.647785488205999904e+00 1.137701775306799767e+01 -6.564447059716700039e+01 -1.146728106069699749e+01 1.647785488205999904e+00 -1.146728106069699749e+01 -7.110059946895398753e+01
-3.381225093864199494e+01 9.183811427273997907e+00 -1.668142744820199752e+01 9.183811427273997907e+00 -4.750346625964499481e+01 -1.413484987551999872e+01 -1.668142744820199752e+01 -1.413484987551999872e+01 -7.100649516951098406e+01
-4.493768372789299548e+01 3.712318588230999694e+00 3.076634443013999576e+00 3.712318588230999694e+00 -3.922996989228899878e+01 -7.893238177769998920e-01 3.076634443013999576e+00 -7.893238177769998920e-01 -5.655860446114999718e+01
-3.953340824559499112e+01 -3.754569498184999965e+00 1.955256882916700079e+01 -3.754569498184999965e+00 -4.652785433888899291e+01 2.435188810075999655e+01 1.955256882916700079e+01 2.435380859666699749e+01 -2.721726799400399699e+01
-2.368547602103099692e+01 8.075685288935000372e+00 1.044749773407999793e+00 8.075685288935000372e+00 -5.212225891597999805e+01 -1.396776673161099858e+01 1.044749773407999793e+00 -1.396776673161099858e+01 -3.658352653244299546e+01
-1.541005915776799817e+01 1.040908781593999954e+01 -1.051279459491799884e+01 1.040908781593999954e+01 -4.229124036804699216e+01 -5.204543907969998440e-01 -1.051279459491799884e+01 -5.204543907969998440e-01 -1.083735840320099797e+01