-3.021053640000000087e+04
-3.020596770000000106e+04
-3.021250649999999951e+04
-3.021036370000000170e+04
-3.020826180000000022e+04
-3.020981200000000172e+04
-3.021243439999999828e+04
-3.020673619999999937e+04
-3.021099279999999999e+04
-3.020829569999999876e+04
-3.020725349999999889e+04
-3.021146719999999914e+04
-3.021198280000000159e+04
-3.021101910000000134e+04
-3.020967569999999978e+04
-3.020953410000000076e+04
-3.020976940000000104e+04
-3.021009930000000168e+04
-3.020859920000000056e+04
-3.021222560000000158e+04
-3.021013430000000153e+04
-3.021131820000000153e+04
-3.020939579999999842e+04
-3.020929030000000057e+04
-3.020842550000000119e+04
-3.020940610000000015e+04
-3.021239099999999962e+04
-3.021056209999999919e+04
-3.021051970000000074e+04
-3.020879449999999997e+04
-3.021148289999999906e+04
-3.021221740000000136e+04
-3.021124079999999958e+04
-3.020890260000000126e+04
-3.021282660000000033e+04
-3.021383569999999963e+04
-3.021107640000000174e+04
-3.021169970000000103e+04
-3.021120860000000175e+04
-3.021642350000000079e+04
-3.020782470000000103e+04
-3.020995109999999841e+04
-3.020810399999999936e+04
-3.021210129999999845e+04
-3.021096559999999954e+04
-3.021041570000000138e+04
-3.021166389999999956e+04
-3.021228849999999875e+04
-3.021221949999999924e+04
-3.020989359999999942e+04
-3.021358320000000094e+04
-3.021107920000000013e+04
-3.020575400000000081e+04
-3.021155549999999857e+04
-3.021168289999999979e+04
-3.020771949999999924e+04
-3.021345820000000094e+04
-3.021256279999999970e+04
-3.020985220000000118e+04
-3.021344039999999950e+04
-3.021042069999999876e+04
-3.021223140000000058e+04
-3.021435129999999845e+04
-3.021464939999999842e+04
-3.021329430000000139e+04
-3.020988009999999849e+04
-3.021151989999999932e+04
-3.021360659999999916e+04
-3.021152419999999984e+04
-3.020999659999999858e+04
-3.020840559999999823e+04
-3.021027379999999903e+04
-3.021228979999999865e+04
-3.021366579999999885e+04
-3.020839300000000003e+04
-3.021095460000000094e+04
-3.020828280000000086e+04
-3.020960580000000118e+04
-3.020907600000000093e+04
-3.021189340000000084e+04
-3.021073579999999856e+04
-3.020898630000000048e+04
-3.021068219999999928e+04
-3.020930159999999887e+04
-3.020918449999999939e+04
-3.021056079999999929e+04
-3.021140220000000045e+04
-3.021442910000000120e+04
-3.021104479999999967e+04
-3.020939760000000024e+04
-3.021430470000000059e+04
-3.021240420000000086e+04
-3.020897379999999976e+04
-3.020742339999999967e+04
-3.020146350000000166e+04
-3.020980319999999847e+04
-3.021062840000000142e+04
-3.020890480000000025e+04
-3.021399669999999969e+04
-3.021309140000000116e+04
-3.020886230000000069e+04
-3.020522780000000057e+04
-3.020714519999999902e+04
-3.020609609999999884e+04
-3.021035459999999875e+04
-3.020850890000000072e+04
-3.021052790000000095e+04
-3.021320660000000134e+04
-3.020875189999999930e+04
-3.020810550000000148e+04
-3.020891890000000058e+04
-3.020828399999999965e+04
-3.020991920000000027e+04
-3.021376540000000023e+04
-3.021142970000000059e+04
-3.021428529999999955e+04
-3.021036279999999897e+04
-3.020776929999999993e+04
-3.020951989999999932e+04
-3.021128020000000106e+04
-3.021429829999999856e+04
-3.021039990000000034e+04
-3.020946549999999843e+04
-3.020972090000000026e+04
-3.020569589999999880e+04
-3.021168769999999859e+04
-3.021135659999999916e+04
-3.021118860000000132e+04
-3.020771589999999924e+04
-3.020830489999999918e+04
-3.021221679999999833e+04
-3.020952699999999822e+04
-3.021378059999999823e+04
-3.020986699999999837e+04
-3.021120669999999882e+04
-3.020834660000000076e+04
-3.021310039999999935e+04
-3.021193990000000122e+04
-3.021114050000000134e+04
-3.020965650000000096e+04
-3.021188499999999840e+04
-3.020972899999999936e+04
-3.021439540000000125e+04
-3.021182080000000133e+04
-3.021237150000000111e+04
-3.020980830000000060e+04
-3.020902019999999902e+04
-3.020946069999999963e+04
-3.020953960000000006e+04
-3.020759230000000025e+04
-3.021047200000000157e+04
-3.021375609999999870e+04
-3.021485239999999976e+04
-3.021084490000000005e+04
-3.021135160000000178e+04
-3.020981560000000172e+04
-3.021061390000000029e+04
-3.021170699999999852e+04
-3.020948189999999886e+04
-3.021101580000000104e+04
-3.021008859999999913e+04
-3.021300539999999819e+04
-3.021112010000000009e+04
-3.020948419999999896e+04
-3.021169780000000173e+04
-3.020416319999999905e+04
-3.021027600000000166e+04
-3.021270520000000033e+04
-3.021200960000000123e+04
-3.021553759999999966e+04
-3.021303369999999995e+04
-3.021012139999999999e+04
-3.021263569999999891e+04
-3.020712370000000010e+04
-3.021267940000000090e+04
-3.020901989999999932e+04
-3.020913539999999921e+04
-3.021052950000000055e+04
-3.021105250000000160e+04
-3.020891470000000118e+04
-3.020659500000000116e+04
-3.021264099999999962e+04
-3.021192180000000008e+04
-3.021178499999999985e+04
-3.020536339999999836e+04
-3.021228830000000016e+04
-3.021323020000000179e+04
-3.021066070000000036e+04
-3.021072780000000057e+04
-3.021060729999999967e+04
-3.020953940000000148e+04
-3.021381650000000081e+04
-3.021199799999999959e+04
-3.021018939999999930e+04
-3.021706759999999849e+04
-3.020951209999999992e+04
-3.021000200000000041e+04
-3.021201819999999861e+04
-3.020994580000000133e+04
-3.021096340000000055e+04
-3.020915460000000166e+04
-3.021311070000000109e+04
-3.020644310000000041e+04
-3.020666460000000006e+04
-3.020985900000000038e+04
-3.020697959999999875e+04
-3.021167229999999836e+04
-3.021124230000000171e+04
-3.021276759999999922e+04
-3.021173709999999846e+04
-3.021174199999999837e+04
-3.021374499999999898e+04
-3.021385499999999956e+04
-3.021464949999999953e+04
-3.020891939999999886e+04
-3.020984690000000046e+04
-3.020953090000000157e+04
-3.021186390000000029e+04
-3.021269489999999860e+04
-3.020892180000000008e+04
-3.021419870000000083e+04
-3.021093319999999949e+04
-3.020761579999999958e+04
-3.020873879999999917e+04
-3.020978540000000066e+04
-3.021262110000000030e+04
-3.021113460000000123e+04
-3.020964479999999821e+04
-3.020732869999999821e+04
-3.020738739999999962e+04
-3.021217390000000159e+04
-3.021453749999999854e+04
-3.021039300000000003e+04
-3.020738690000000133e+04
-3.021000460000000021e+04
-3.021126420000000144e+04
-3.021273709999999846e+04
-3.021304360000000088e+04
-3.021146549999999843e+04
-3.020745520000000033e+04
-3.021291990000000078e+04
-3.021212529999999970e+04
-3.021394420000000173e+04
-3.021138699999999881e+04
-3.021182930000000124e+04
-3.021506030000000101e+04
-3.021125129999999990e+04
-3.020935670000000027e+04
-3.020786140000000159e+04
-3.020751819999999861e+04
-3.020820829999999842e+04
-3.021299710000000050e+04
-3.021136079999999856e+04
-3.020812120000000141e+04
-3.021010540000000037e+04
-3.021347790000000168e+04
-3.021622929999999906e+04
-3.020853269999999975e+04
-3.021194499999999971e+04
-3.021147989999999845e+04
-3.021089970000000176e+04
-3.020819830000000002e+04
-3.020703410000000076e+04
-3.020782119999999850e+04
-3.021391670000000158e+04
-3.021028320000000167e+04
-3.020854479999999967e+04
-3.021342729999999938e+04
-3.020967780000000130e+04
-3.021286309999999867e+04
-3.020941100000000006e+04
-3.021000769999999829e+04
-3.021269499999999971e+04
-3.021272759999999835e+04
-3.020900400000000081e+04
-3.021038509999999951e+04
-3.021274369999999908e+04
-3.020980199999999968e+04
-3.021129820000000109e+04
-3.021392120000000068e+04
-3.021124069999999847e+04
-3.020827639999999883e+04
-3.020658850000000166e+04
-3.021567239999999947e+04
-3.021498199999999997e+04
-3.020949450000000070e+04
-3.020704630000000179e+04
-3.021078470000000016e+04
-3.020806339999999909e+04
-3.020938369999999850e+04
-3.020979980000000069e+04
-3.021143669999999838e+04
-3.021411189999999988e+04
-3.021302160000000003e+04
-3.020951970000000074e+04
-3.020968040000000110e+04
-3.020815169999999853e+04
-3.020953900000000067e+04
-3.020912960000000021e+04
-3.021169029999999839e+04
-3.021305350000000180e+04
-3.021304079999999885e+04
-3.020926550000000134e+04
-3.021057059999999910e+04
-3.021075739999999860e+04
-3.021038179999999920e+04
-3.021041180000000168e+04
-3.020904920000000129e+04
-3.020912050000000090e+04
-3.020411469999999827e+04
-3.020578499999999985e+04
-3.021336869999999908e+04
-3.020931780000000072e+04
-3.020963609999999971e+04
-3.021371359999999913e+04
-3.021238300000000163e+04
-3.020849959999999919e+04
-3.021268830000000162e+04
-3.020574000000000160e+04
-3.020905410000000120e+04
-3.021325140000000101e+04
-3.020888100000000122e+04
-3.021135599999999977e+04
-3.021167020000000048e+04
-3.020786079999999856e+04
-3.021116249999999854e+04
-3.020878059999999823e+04
-3.021240439999999944e+04
-3.021379869999999937e+04
-3.021248919999999998e+04
-3.021310389999999825e+04
-3.020977750000000015e+04
-3.020769139999999970e+04
-3.021259029999999984e+04
-3.020712900000000081e+04
-3.021454400000000169e+04
-3.021188279999999941e+04
-3.020898189999999886e+04
-3.021266400000000067e+04
-3.021045869999999923e+04
-3.021154460000000108e+04
-3.021285599999999977e+04
-3.020966229999999996e+04
-3.021291670000000158e+04
-3.021356650000000081e+04
-3.021026209999999992e+04
-3.021290409999999974e+04
-3.021182579999999871e+04
-3.021368909999999960e+04
-3.020928889999999956e+04
-3.021434869999999864e+04
-3.021207519999999931e+04
-3.021153269999999975e+04
-3.020807849999999962e+04
-3.021095690000000104e+04
-3.020851220000000103e+04
-3.020881239999999889e+04
-3.021407879999999932e+04
-3.021103529999999955e+04
-3.020890309999999954e+04
-3.020986469999999827e+04
-3.020945160000000033e+04
-3.021244770000000062e+04
-3.020568210000000181e+04
-3.020582630000000063e+04
-3.020890780000000086e+04
-3.020837039999999979e+04
-3.020679750000000058e+04
-3.020771449999999822e+04
-3.021442610000000059e+04
-3.021376489999999831e+04
-3.021011360000000059e+04
-3.021240269999999873e+04
-3.021357219999999870e+04
-3.020697379999999976e+04
-3.020815160000000105e+04
-3.020880740000000151e+04
-3.021319499999999971e+04
-3.021410829999999987e+04
-3.021155259999999907e+04
-3.021177230000000054e+04
-3.021236769999999888e+04
-3.020691830000000118e+04
-3.021093920000000071e+04
-3.021001680000000124e+04
-3.021392980000000171e+04
-3.021221960000000036e+04
-3.020918470000000161e+04
-3.020880069999999978e+04
-3.020454769999999917e+04
-3.020881109999999899e+04
-3.021080389999999898e+04
-3.021248010000000068e+04
-3.021001499999999942e+04
-3.021174750000000131e+04
-3.021148199999999997e+04
-3.021314619999999923e+04
-3.020852309999999852e+04
-3.021015190000000075e+04
-3.021465740000000005e+04
-3.020972030000000086e+04
-3.021162090000000171e+04
-3.020621470000000045e+04
-3.020442350000000079e+04
-3.020937059999999838e+04
-3.021365290000000095e+04
-3.020901350000000093e+04
-3.021060910000000149e+04
-3.020816089999999895e+04
-3.021136679999999978e+04
-3.020833629999999903e+04
-3.021059560000000056e+04
-3.020994870000000083e+04
-3.021030159999999887e+04
-3.021041639999999825e+04
-3.021068690000000061e+04
-3.021067729999999938e+04
-3.020749230000000171e+04
-3.021226150000000052e+04
-3.020886100000000079e+04
-3.021257119999999850e+04
-3.021305080000000089e+04
-3.020654279999999926e+04
-3.021097049999999945e+04
-3.020979160000000047e+04
-3.021077620000000024e+04
-3.021123070000000007e+04
-3.020966939999999886e+04
-3.021301540000000023e+04
-3.020696949999999924e+04
-3.020687700000000041e+04
-3.021467680000000109e+04
-3.021270209999999861e+04
-3.020931009999999878e+04
-3.021077100000000064e+04
-3.021119090000000142e+04
-3.021560009999999966e+04
-3.021206149999999980e+04
-3.021195660000000134e+04
-3.021073570000000109e+04
-3.020801009999999951e+04
-3.020921889999999985e+04
-3.020711260000000038e+04
-3.021282679999999891e+04
-3.020899620000000141e+04
-3.021121350000000166e+04
-3.021205800000000090e+04
-3.021400249999999869e+04
-3.020969250000000102e+04
-3.020975179999999818e+04
-3.020871860000000015e+04
-3.020735109999999986e+04
-3.021273219999999856e+04
-3.021463230000000112e+04
-3.021468000000000029e+04
-3.021167880000000150e+04
-3.021187559999999939e+04
-3.021459019999999873e+04
-3.021112399999999980e+04
-3.021065999999999985e+04
-3.021216549999999916e+04
-3.020956379999999990e+04
-3.020818159999999989e+04
-3.020719800000000032e+04
-3.021158130000000165e+04
-3.020488200000000143e+04
-3.020925379999999859e+04
-3.021365910000000076e+04
-3.020745609999999942e+04
-3.021285050000000047e+04
-3.021584590000000026e+04
-3.021163620000000083e+04
-3.021443700000000172e+04
-3.021095720000000074e+04
-3.021585670000000027e+04
-3.021136560000000100e+04
-3.020809660000000076e+04
-3.020725519999999960e+04
-3.021221329999999944e+04
-3.021059839999999895e+04
-3.021202270000000135e+04
-3.021272940000000017e+04
-3.021087740000000122e+04
-3.020896189999999842e+04
-3.020969780000000173e+04
-3.020737180000000080e+04
-3.021154179999999906e+04
-3.021210050000000047e+04
-3.020839240000000063e+04
-3.021143140000000130e+04
-3.021213639999999941e+04
-3.021291180000000168e+04
-3.020884419999999955e+04
-3.021015940000000046e+04
-3.021283120000000054e+04
-3.020992150000000038e+04
-3.020835429999999906e+04
-3.021031710000000021e+04
-3.021423140000000058e+04
-3.021093709999999919e+04
-3.021027160000000003e+04
-3.021041860000000088e+04
-3.020693249999999898e+04
-3.021107530000000042e+04
-3.021195760000000155e+04
-3.020793579999999929e+04
-3.021413460000000123e+04
-3.021146500000000015e+04
-3.020950019999999859e+04
-3.021467390000000159e+04
-3.020799350000000049e+04
-3.020811260000000038e+04
-3.020990149999999994e+04
-3.021256810000000041e+04
-3.021210160000000178e+04
-3.021047079999999914e+04
-3.021391410000000178e+04
-3.020907170000000042e+04
-3.021341690000000017e+04
-3.021380250000000160e+04
-3.020506079999999929e+04
-3.021368379999999888e+04
-3.021419759999999951e+04
-3.021194190000000162e+04
-3.021019299999999930e+04
-3.021205990000000020e+04
-3.021346930000000066e+04
-3.021255110000000059e+04
-3.021027309999999852e+04
-3.021090889999999854e+04
-3.020244380000000092e+04
-3.021082410000000164e+04
-3.020847959999999875e+04
-3.020825639999999839e+04
-3.020760889999999927e+04
-3.021248129999999946e+04
-3.020876440000000002e+04
-3.021199049999999988e+04
-3.020863479999999981e+04
-3.021226750000000175e+04
-3.021101009999999951e+04
-3.020880010000000038e+04
-3.020650230000000010e+04
-3.020945769999999902e+04
-3.021030909999999858e+04
-3.020848790000000008e+04
-3.020878059999999823e+04
-3.021419009999999980e+04
-3.021130229999999938e+04
-3.021201380000000063e+04
-3.020966860000000088e+04
-3.021190049999999974e+04
-3.020941820000000007e+04
-3.021014939999999842e+04
-3.021387740000000122e+04
-3.021014660000000003e+04
-3.021060389999999825e+04
-3.021093470000000161e+04
-3.021137570000000051e+04
-3.021009049999999843e+04
-3.021208899999999994e+04
-3.020878629999999976e+04
-3.021103190000000177e+04
-3.021151859999999942e+04
-3.020897920000000158e+04
-3.021071749999999884e+04
-3.021157519999999931e+04
-3.020977070000000094e+04
-3.020782180000000153e+04
-3.021317750000000160e+04
-3.021234960000000137e+04
-3.021773029999999926e+04
-3.020701529999999912e+04
-3.021174880000000121e+04
-3.021034230000000025e+04
-3.021256120000000010e+04
-3.021328680000000168e+04
-3.021228199999999924e+04
-3.021282579999999871e+04
-3.020961769999999888e+04
-3.021207180000000153e+04
-3.021344389999999839e+04
-3.021191800000000148e+04
-3.021261200000000099e+04
-3.020814020000000164e+04
-3.020922469999999885e+04
-3.020931450000000041e+04
-3.020985819999999876e+04
-3.020834219999999914e+04
-3.020854650000000038e+04
-3.021134930000000168e+04
-3.020730519999999888e+04
-3.021041249999999854e+04
-3.020422590000000127e+04
-3.021137800000000061e+04
-3.021016270000000077e+04
-3.020815639999999985e+04
-3.020788520000000062e+04
-3.020993669999999838e+04
-3.020805099999999948e+04
-3.021499989999999889e+04
-3.020946759999999995e+04
-3.021175530000000072e+04
-3.021172030000000086e+04
-3.020742529999999897e+04
-3.021281950000000143e+04
-3.020831100000000151e+04
-3.020862250000000131e+04
-3.020705470000000059e+04
-3.020655380000000150e+04
-3.021104650000000038e+04
-3.021337340000000040e+04
-3.020982119999999850e+04
-3.020876199999999881e+04
-3.021208889999999883e+04
-3.021078050000000076e+04
-3.021108789999999863e+04
-3.020834500000000116e+04
-3.021158989999999903e+04
-3.021245780000000013e+04
-3.021065269999999873e+04
-3.020967390000000159e+04
-3.021195599999999831e+04
-3.020889470000000074e+04
-3.020672460000000137e+04
-3.021232430000000022e+04
-3.021101199999999881e+04
-3.020960420000000158e+04
-3.021155449999999837e+04
-3.020342900000000009e+04
-3.021179330000000118e+04
-3.021415880000000107e+04
-3.021065039999999863e+04
-3.020633369999999923e+04
-3.021075159999999960e+04
-3.021443860000000132e+04
-3.021142959999999948e+04
-3.020978009999999995e+04
-3.020580970000000161e+04
-3.021137670000000071e+04
-3.020959890000000087e+04
-3.021062250000000131e+04
-3.021205470000000059e+04
-3.021462710000000152e+04
-3.020833139999999912e+04
-3.020917260000000169e+04
-3.021353059999999823e+04
-3.020946129999999903e+04
-3.021083329999999842e+04
-3.021363070000000153e+04
-3.021200560000000041e+04
-3.020998280000000159e+04
-3.021091930000000139e+04
-3.020977209999999832e+04
-3.021061270000000150e+04
-3.021393200000000070e+04
-3.020975839999999880e+04
-3.020880389999999898e+04
-3.020706290000000081e+04
-3.021192799999999988e+04
-3.021158529999999882e+04
-3.020975649999999951e+04
-3.020985770000000048e+04
-3.021000200000000041e+04
-3.021155529999999999e+04
-3.020781149999999980e+04
-3.021195409999999902e+04
-3.021308109999999942e+04
-3.020895200000000114e+04
-3.020906060000000070e+04
-3.021185840000000098e+04
-3.021369090000000142e+04
-3.020611839999999938e+04
-3.021270089999999982e+04
-3.021183190000000104e+04
-3.021304950000000099e+04
-3.021323819999999978e+04
-3.021318100000000049e+04
-3.020995170000000144e+04
-3.021013899999999921e+04
-3.020794930000000022e+04
-3.021097469999999885e+04
-3.021086739999999918e+04
-3.020925330000000031e+04
-3.021195720000000074e+04
-3.020765880000000107e+04
-3.021285469999999987e+04
-3.021039939999999842e+04
-3.021063969999999972e+04
-3.021371659999999974e+04
-3.020959890000000087e+04
-3.020805970000000161e+04
-3.021467919999999867e+04
-3.020852430000000095e+04
-3.021107690000000002e+04
-3.021262059999999838e+04
-3.021111379999999917e+04
-3.021326599999999962e+04
-3.021184850000000006e+04
-3.021244399999999951e+04
-3.021220130000000063e+04
-3.021002449999999953e+04
-3.020995579999999973e+04
-3.020970119999999952e+04
-3.021176469999999972e+04
-3.020993549999999959e+04
-3.021090269999999873e+04
-3.021427600000000166e+04
-3.021218449999999939e+04
-3.021209430000000066e+04
-3.021309460000000036e+04
-3.020723570000000109e+04
-3.021407059999999910e+04
-3.020602760000000126e+04
-3.020984449999999924e+04
-3.020869540000000052e+04
-3.020516300000000047e+04
-3.020832939999999871e+04
-3.021152699999999822e+04
-3.020957660000000033e+04
-3.021336960000000181e+04
-3.021389870000000155e+04
-3.020997680000000037e+04
-3.020705449999999837e+04
-3.021039010000000053e+04
-3.020966159999999945e+04
-3.020951900000000023e+04
-3.020848489999999947e+04
-3.021503800000000047e+04
-3.021126129999999830e+04
-3.020915469999999914e+04
-3.021000909999999931e+04
-3.021090880000000107e+04
-3.021246610000000146e+04
-3.021114240000000063e+04
-3.020890859999999884e+04
-3.021326209999999992e+04
-3.020899870000000010e+04
-3.021124620000000141e+04
-3.021224179999999978e+04
-3.020914389999999912e+04
-3.020992840000000069e+04
-3.021005510000000140e+04
-3.021059839999999895e+04
-3.020791540000000168e+04
-3.020859960000000137e+04
-3.021028050000000076e+04
-3.020965439999999944e+04
-3.021392160000000149e+04
-3.021163560000000143e+04
-3.021421649999999863e+04
-3.021140429999999833e+04
-3.021292859999999928e+04
-3.021496710000000166e+04
-3.020999439999999959e+04
-3.020864119999999821e+04
-3.020721870000000126e+04
-3.020335659999999916e+04
-3.021024919999999838e+04
-3.021109720000000016e+04
-3.021262250000000131e+04
-3.020910940000000119e+04
-3.021080219999999827e+04
-3.021200360000000001e+04
-3.020913360000000102e+04
-3.020950430000000051e+04
-3.021025440000000162e+04
-3.020819429999999920e+04
-3.021183520000000135e+04
-3.021301670000000013e+04
-3.021026220000000103e+04
-3.020919080000000031e+04
-3.021026859999999942e+04
-3.020835819999999876e+04
-3.020711049999999886e+04
-3.021132129999999961e+04
-3.021103550000000178e+04
-3.020963530000000173e+04
-3.021016470000000118e+04
-3.021105909999999858e+04
-3.020997920000000158e+04
-3.020878369999999995e+04
-3.021031409999999960e+04
-3.021049190000000090e+04
-3.020889099999999962e+04
-3.020727449999999953e+04
-3.020650530000000072e+04
-3.020943400000000111e+04
-3.021169619999999850e+04
-3.021131789999999819e+04
-3.021033759999999893e+04
-3.020921719999999914e+04
-3.021177419999999984e+04
-3.021044369999999981e+04
-3.021083840000000055e+04
-3.021051239999999962e+04
-3.020944589999999880e+04
-3.021175660000000062e+04
-3.021090910000000076e+04
-3.020829690000000119e+04
-3.020939059999999881e+04
-3.021127679999999964e+04
-3.021272759999999835e+04
-3.021166470000000118e+04
-3.021262099999999919e+04
-3.021047019999999975e+04
-3.020655619999999908e+04
-3.020651020000000062e+04
-3.020856850000000122e+04
-3.021162010000000009e+04
-3.021171589999999924e+04
-3.021003600000000006e+04
-3.021494589999999880e+04
-3.021025170000000071e+04
-3.021011249999999927e+04
-3.021106260000000111e+04
-3.021323809999999867e+04
-3.020913739999999962e+04
-3.021043430000000080e+04
-3.021069719999999870e+04
-3.020542380000000048e+04
-3.021382500000000073e+04
-3.021350240000000122e+04
-3.020794239999999991e+04
-3.020991340000000127e+04
-3.020906330000000162e+04
-3.020768720000000030e+04
-3.021701229999999850e+04
-3.020882530000000042e+04
-3.020688450000000012e+04
-3.021382509999999820e+04
-3.021033130000000165e+04
-3.021501050000000032e+04
-3.021344289999999819e+04
-3.020544099999999889e+04
-3.020878740000000107e+04
-3.020869719999999870e+04
-3.021063409999999931e+04
-3.021069580000000133e+04
-3.021461409999999887e+04
-3.020314229999999952e+04
-3.021320939999999973e+04
-3.021105050000000119e+04
-3.020808320000000094e+04
-3.021247490000000107e+04
-3.021220780000000013e+04
-3.021091939999999886e+04
-3.021309720000000016e+04
-3.021012359999999899e+04
-3.020774580000000060e+04
-3.021268530000000101e+04
-3.020811579999999958e+04
-3.020878050000000076e+04
-3.021352189999999973e+04
-3.020842919999999867e+04
-3.021097620000000097e+04
-3.020936950000000070e+04
-3.020896909999999843e+04
-3.021368509999999878e+04
-3.020959110000000146e+04
-3.021364740000000165e+04
-3.021103689999999915e+04
-3.021105429999999978e+04
-3.021074329999999827e+04
-3.020856309999999939e+04
-3.020722339999999895e+04
-3.020999420000000100e+04
-3.020891790000000037e+04
-3.021236850000000049e+04
-3.021315970000000016e+04
-3.021021570000000065e+04
-3.020998329999999987e+04
-3.021057119999999850e+04
-3.021076889999999912e+04
-3.021391359999999986e+04
-3.021154499999999825e+04
-3.021071399999999994e+04
-3.020708459999999832e+04
-3.021058239999999932e+04
-3.020626750000000175e+04
-3.021525579999999900e+04
-3.020828359999999884e+04
-3.020919280000000072e+04
-3.021049209999999948e+04
-3.021424850000000151e+04
-3.021167810000000100e+04
-3.021034289999999964e+04
-3.021279089999999997e+04
-3.021162900000000081e+04
-3.021185020000000077e+04
-3.020891330000000016e+04
-3.021605480000000171e+04
-3.020983980000000156e+04
-3.020864479999999821e+04
-3.020705860000000030e+04
-3.021255229999999938e+04
-3.021407449999999881e+04
-3.020948150000000169e+04
-3.021029650000000038e+04
-3.021113709999999992e+04
-3.021139760000000024e+04
-3.020559140000000116e+04
-3.021165729999999894e+04
-3.020480540000000110e+04
-3.021231789999999819e+04
-3.021015880000000107e+04
-3.021206109999999899e+04
-3.020884259999999995e+04
-3.020805449999999837e+04
-3.020962909999999829e+04
-3.020989470000000074e+04
-3.021097839999999997e+04
-3.021254479999999967e+04
-3.021079750000000058e+04
-3.021419859999999971e+04
-3.021244210000000021e+04
-3.021118860000000132e+04
-3.021415299999999843e+04
-3.021321020000000135e+04
-3.020681869999999981e+04
-3.020649150000000009e+04
-3.020695009999999820e+04
-3.020917689999999857e+04
-3.020837719999999899e+04
-3.021120660000000134e+04
-3.020809179999999833e+04
-3.021259979999999996e+04
-3.021195939999999973e+04
-3.020849109999999928e+04
-3.021012470000000030e+04
-3.020685299999999916e+04
-3.020746319999999832e+04
-3.021139630000000034e+04
-3.020797850000000108e+04
-3.021064689999999973e+04
-3.021036739999999918e+04
-3.020500670000000173e+04
-3.020959130000000005e+04
-3.021207500000000073e+04
-3.020890139999999883e+04
-3.020840829999999914e+04
-3.020848790000000008e+04
-3.020685629999999946e+04
-3.021016969999999856e+04
-3.021172969999999987e+04
-3.020791649999999936e+04
-3.021194299999999930e+04
-3.021103979999999865e+04
-3.021240060000000085e+04
-3.021353250000000116e+04
-3.021513690000000133e+04
-3.021170249999999942e+04
-3.020893790000000081e+04
-3.021298779999999897e+04
-3.020805800000000090e+04
-3.021047160000000076e+04
-3.021310680000000139e+04
-3.021046689999999944e+04
-3.020892719999999827e+04
-3.020950149999999849e+04
-3.021033150000000023e+04
-3.021333339999999953e+04
-3.021228369999999995e+04
-3.021084800000000178e+04
-3.021177230000000054e+04
-3.021192819999999847e+04
-3.021012670000000071e+04
-3.021190330000000176e+04
-3.020745249999999942e+04
-3.020737889999999970e+04
-3.021099539999999979e+04
-3.021087189999999828e+04
-3.020887949999999910e+04
-3.021261690000000090e+04
-3.020995850000000064e+04
-3.021053729999999996e+04
-3.021409080000000176e+04
-3.020852339999999822e+04
-3.020779449999999997e+04
-3.020929780000000028e+04
-3.021172899999999936e+04
-3.021130630000000019e+04
-3.020343340000000171e+04
-3.021548140000000058e+04
-3.020644700000000012e+04
-3.021482370000000083e+04
-3.020877639999999883e+04
-3.021007790000000023e+04
-3.021023979999999938e+04
-3.021154499999999825e+04
-3.021409519999999975e+04
-3.021349369999999908e+04
-3.020918750000000000e+04
-3.021228320000000167e+04
-3.020537429999999949e+04
-3.021148530000000028e+04
-3.020929230000000098e+04
-3.020931729999999880e+04
-3.020695739999999932e+04
-3.020914300000000003e+04
