-6.710820852531206526e+01 1.191395372646401185e+01 7.186295480320007201e+00 1.191395372646401185e+01 -6.474198928179207257e+01 -8.112068800512007627e+00 7.186295480320007201e+00 -8.112068800512007627e+00 -3.208975713484803549e+01
-5.553205848883205675e+01 6.709864804352006828e+00 -8.438718595072009165e+00 6.709864804352006828e+00 -4.460442780057604750e+01 1.645996281856001886e+01 -8.438718595072009165e+00 1.645996281856001886e+01 -7.028228848025607078e+01
-2.870056633958402870e+01 -9.391579947008009910e+00 -7.919265751040007295e+00 -9.391579947008009910e+00 -4.770839755571204677e+01 -1.829238849536001688e+00 -7.919265751040007295e+00 -1.829238849536001688e+00 -6.714485703884807322e+01
-4.730526390681604454e+01 -1.023449575833600989e+01 1.816491540480001721e+00 -1.023449575833600989e+01 -7.956073605939208448e+01 -2.544681570304002438e+00 1.816491540480001721e+00 -2.544681570304002438e+00 -3.914379928371204187e+01
-8.095019274649608576e+01 -5.194528440320005380e-01 1.519001215385601533e+01 -5.194528440320005380e-01 -5.571530105651205389e+01 -3.382817140736003036e+00 1.518841874022401583e+01 -3.382817140736003036e+00 -5.896427145216006238e+01
-3.928242626969603890e+01 1.547045295308801727e+01 -1.796095845990402040e+01 1.547045295308801727e+01 -5.351479683072005145e+01 -3.186827264000002997e-03 -1.795936504627201913e+01 -3.186827264000002997e-03 -4.726224173875204571e+01
-5.016544137625604804e+01 5.097330208768005022e+00 -6.290797019136006085e+00 5.097330208768005022e+00 -3.131535810969603162e+01 1.234895564800001289e+00 -6.290797019136006085e+00 1.234895564800001289e+00 -2.652396331827202758e+01
-2.362076368076802524e+01 -1.288752945561601315e+01 2.617978597376002359e+00 -1.288752945561601315e+01 -1.433912927436801432e+01 1.380852253491201331e+01 2.617978597376002359e+00 1.380852253491201331e+01 -4.578036706099204878e+01
-4.417420611993604496e+01 -1.894250125721601918e+01 3.335014731776003050e+00 -1.894250125721601918e+01 -2.712786708480002318e+01 -1.425627176550401387e+01 3.335014731776003050e+00 -1.425627176550401387e+01 -2.756605583360002498e+01
-3.260920997888003114e+01 1.392484173004801384e+01 7.995749605376007985e+00 1.392484173004801384e+01 -5.602920354201605591e+01 -9.855263313920010759e+00 7.995749605376007985e+00 -9.855263313920010759e+00 -4.492470394060804750e+01
-3.941308618752003667e+01 -2.291328802816002508e+01 -7.842781896704008382e+00 -2.291328802816002508e+01 -4.847960975360005165e+01 1.763908890624001691e+00 -7.842781896704008382e+00 1.763908890624001691e+00 -5.892921635225606281e+01
-4.444189961011204559e+01 -4.482272546816004066e+00 -9.686361468928010865e+00 -4.482272546816004066e+00 -6.593545609216006653e+01 7.250032025600007479e+00 -9.686361468928010865e+00 7.250032025600007479e+00 -5.861531386675206079e+01
-3.708192204390403646e+01 1.415429329305601414e+01 1.317753073664001295e+00 1.415429329305601414e+01 -5.040923366195204380e+01 2.331642167705602375e+01 1.317753073664001295e+00 2.331642167705602375e+01 -5.153577709977604826e+01
-3.790731030528003487e+01 -4.179523956736003854e+00 5.435133898752005699e+00 -4.179523956736003854e+00 -6.328560922214406759e+01 -1.265807789260801286e+01 5.435133898752005699e+00 -1.265807789260801286e+01 -2.730154917068802689e+01
-4.249156132454404400e+01 -1.355516976742401525e+01 2.076217962496001768e+00 -1.355516976742401525e+01 -6.217818674790406419e+01 1.232983468441601183e+01 2.076217962496001768e+00 1.232983468441601183e+01 -6.249208923340805910e+01
-5.122824826880005133e+01 4.463151583232004782e+00 8.008496914432008396e+00 4.463151583232004782e+00 -2.485565924556802386e+01 8.916742684672009034e+00 8.008496914432008396e+00 8.916742684672009034e+00 -5.216676889804804773e+01
-4.430167921049604729e+01 8.363828154368007972e+00 1.318549780480001310e+01 8.365421568000009245e+00 -4.642729299558404676e+01 -1.252582456115201204e+01 1.318549780480001310e+01 -1.252582456115201204e+01 -2.904793051136002902e+01
-4.644482054553604655e+01 -1.013889094041600991e+01 -3.262673752883203804e+01 -1.013889094041600991e+01 -4.984994547712005186e+01 8.475367108608008238e+00 -3.262673752883203804e+01 8.475367108608008238e+00 -4.413755760640004411e+01
-4.579630119731204729e+01 8.430751526912008131e+00 1.361731289907201337e+01 8.430751526912008131e+00 -4.143512808652803869e+01 1.321895949107201318e+01 1.361731289907201337e+01 1.321895949107201318e+01 -3.457707581440003253e+01
-4.024962834432004399e+01 2.939848151040003188e+00 1.950816309657601977e+01 2.939848151040003188e+00 -3.739104428851204176e+01 -1.004009929523201095e+01 1.950816309657601977e+01 -1.004009929523201095e+01 -5.776443098726405623e+01
-5.924311883776005772e+01 -8.701631844352007761e+00 -9.125479870464010546e+00 -8.701631844352007761e+00 -5.318655362252805219e+01 -1.036356226252800994e+01 -9.125479870464010546e+00 -1.036356226252800994e+01 -5.542848660275205219e+01
-6.192005373952005698e+01 -2.532730968064002397e+01 -1.626397294182401865e+01 -2.532730968064002397e+01 -6.552276196147205667e+01 -9.966802268160011025e+00 -1.626397294182401865e+01 -9.966802268160011025e+00 -4.851307143987204995e+01
-3.738945087488004049e+01 3.388712771174403571e+01 9.917406445568010653e+00 3.388712771174403571e+01 -5.378249032089605208e+01 2.514406711296002683e+00 9.918999859200010150e+00 2.514406711296002683e+00 -4.984994547712005186e+01
-3.231283504332802892e+01 -1.489841745920001514e+00 -2.233487887974402142e+01 -1.489841745920001514e+00 -4.730207707955204910e+01 9.260920029184010360e+00 -2.233328546611202370e+01 9.260920029184010360e+00 -5.800822327296005909e+01
-4.513503454003204496e+01 5.098923622400005629e-01 -1.178488722227201180e+01 5.098923622400005629e-01 -4.499800096768004920e+01 -1.096109237452801111e+01 -1.178488722227201180e+01 -1.096109237452801111e+01 -6.696639471206407279e+01
-2.941760247398402939e+01 8.645862367232009404e+00 1.149010570035201262e+01 8.645862367232009404e+00 -5.108006080102405377e+01 2.120833544192002407e+01 1.149010570035201262e+01 2.120833544192002407e+01 -5.056857502515205027e+01
-2.156844692275202036e+01 -1.409055674777601475e+01 2.261372626534402386e+01 -1.409055674777601475e+01 -3.538493652582403826e+01 -1.734112055705601918e+01 2.261372626534402386e+01 -1.734112055705601918e+01 -2.938254737408003336e+01
-2.631522613248002429e+01 -1.708139413504001780e+00 9.264106856448009353e+00 -1.708139413504001780e+00 -2.287504610099202296e+01 -7.207009857536007758e+00 9.262513442816008080e+00 -7.207009857536007758e+00 -4.040737629388804208e+01
-5.408045867008004848e+01 -8.343113777152009192e+00 -2.547231032115202609e+01 -8.343113777152009192e+00 -4.246287987916804241e+01 -7.987782537216007839e+00 -2.547231032115202609e+01 -7.987782537216007839e+00 -5.266869419212805070e+01
-6.196944956211206801e+01 -5.922718470144005209e+00 1.829238849536001865e+01 -5.924311883776005594e+00 -3.020156198092802668e+01 -3.333421318144003553e+00 1.829238849536001865e+01 -3.333421318144003553e+00 -6.068993841561605507e+01
-5.082033437900805239e+01 -2.139954507776002046e+00 -9.307129024512009963e+00 -2.139954507776002046e+00 -6.721656065228806654e+01 7.898551373824007626e+00 -9.307129024512009963e+00 7.898551373824007626e+00 -4.568157541580804804e+01
-1.986827457740801961e+01 -1.184225011302401143e+01 -3.746115448832003647e+00 -1.184384352665601270e+01 -4.499162731315204411e+01 -1.688221743104001860e+01 -3.746115448832003647e+00 -1.688221743104001860e+01 -2.799946434150403007e+01
-3.724285682073603709e+01 6.301950914560007000e+00 -2.643473215488002737e+00 6.301950914560007000e+00 -4.888433681612804804e+01 -2.582923497472002783e+00 -2.643473215488002737e+00 -2.582923497472002783e+00 -2.073190476595202014e+01
-4.035638705766403689e+01 -2.772539719680002790e+00 -1.909865579315201956e+01 -2.772539719680002790e+00 -5.868383065292805867e+01 3.194794332160002970e+00 -1.909865579315201956e+01 3.194794332160002970e+00 -5.648970008166405421e+01
-1.621935736012801854e+01 8.104101732352008369e+00 -3.419465654272003441e+00 8.102508318720008873e+00 -4.004089115852804071e+01 1.982684582297601850e+01 -3.419465654272003441e+00 1.982684582297601850e+01 -3.631230325964803995e+01
-6.684370186240006895e+00 2.649846870016002498e+00 -8.363828154368007972e+00 2.649846870016002498e+00 -5.224484616601604614e+01 -4.855131336704004319e+00 -8.365421568000009245e+00 -4.855131336704004319e+00 -3.040870575308803225e+01
-3.320355326361602977e+01 1.491435159552001544e+01 -9.123886456832009273e+00 1.491435159552001544e+01 -6.217340650700806037e+01 1.065197012992001113e+01 -9.123886456832009273e+00 1.065197012992001113e+01 -4.571822392934404178e+01
-5.762102376038405538e+01 -1.295285941452801382e+01 2.963749355520003181e+00 -1.295285941452801382e+01 -4.869472059392005292e+01 -3.989907734528004291e+00 2.963749355520003181e+00 -3.989907734528004291e+00 -4.959499929600004720e+01
-4.230353851596804304e+01 7.743990251520007639e-01 2.958969114624002916e+00 7.743990251520007639e-01 -2.711352636211202594e+01 7.485857243136007533e+00 2.958969114624002916e+00 7.485857243136007533e+00 -1.624803880550401658e+01
-2.607940091494402424e+01 2.927100841984003221e+00 6.536182718464005781e+00 2.927100841984003221e+00 -4.800955273216004571e+00 2.492098920448002630e+00 6.534589304832006285e+00 2.492098920448002630e+00 -3.443366858752003878e+01
-3.525746343526403592e+01 -1.407143578419201546e+01 -3.919797534720003807e+00 -1.406984237056001241e+01 -3.849687334912003678e+01 -1.068383840256000994e+01 -3.919797534720003807e+00 -1.068383840256000994e+01 -4.489920932249604846e+01
-3.205948227584003263e+01 -6.612666572800006470e+00 1.481874677760001591e+00 -6.612666572800006470e+00 -2.885831428915202679e+01 2.407647997952002239e+00 1.480281264128001428e+00 2.407647997952002239e+00 -8.016145299865607399e+01
-4.418536001536004676e+01 6.182444892160006145e-01 4.552382746624004994e+00 6.182444892160006145e-01 -4.925878901964804868e+01 -1.764068231987201685e+01 4.552382746624004994e+00 -1.764068231987201685e+01 -4.051094817996803954e+01
-4.687982246707204581e+01 9.041028947968008822e+00 1.021856162201601137e+01 9.041028947968008822e+00 -4.781993650995205059e+01 1.133873140531201074e+01 1.021856162201601137e+01 1.133873140531201074e+01 -4.112919266918404304e+01
-1.923568936550401887e+01 2.877864360755203066e+01 -5.484529721344006070e+00 2.877864360755203066e+01 -4.881103978905604635e+01 -1.899349049344001727e+00 -5.484529721344006070e+00 -1.899349049344001727e+00 -4.807010245017605143e+01
-3.785313424179203423e+01 -6.501127618560006427e-01 -6.434204246016006046e+00 -6.501127618560006427e-01 -4.294568420966404432e+01 1.174186505420801119e+01 -6.434204246016006046e+00 1.174186505420801119e+01 -5.178753645363205749e+01
-5.954268060057605538e+01 -1.577957519769601724e+01 9.323063160832010254e+00 -1.577957519769601724e+01 -4.920461295616004804e+01 -9.469657214976010096e+00 9.323063160832010254e+00 -9.469657214976010096e+00 -4.809241024102404793e+01
-4.035479364403204272e+01 -4.756339691520004465e+00 1.599946627891201523e+01 -4.756339691520004465e+00 -4.578833412915204804e+01 -1.388022614835201374e+01 1.599946627891201523e+01 -1.388022614835201374e+01 -4.622014922342405185e+01
-2.001327521792002173e+01 -1.794183749632001890e+00 1.717699895296001644e+00 -1.794183749632001890e+00 -3.142849047756802960e+01 9.303942197248009194e+00 1.717699895296001644e+00 9.303942197248009194e+00 -2.263922088345602290e+01
-2.376576432128002381e+01 2.552648638464002584e+00 1.024246282649600914e+01 2.552648638464002584e+00 -3.497383580876803677e+01 5.624750120960005928e-01 1.024246282649600914e+01 5.624750120960005928e-01 -3.633461105049603646e+01
-3.273190282854403677e+01 -7.504978206720006817e+00 -4.107820343296004317e+00 -7.504978206720006817e+00 -4.230035168870404760e+01 -5.811179515904005832e+00 -4.107820343296004317e+00 -5.811179515904005832e+00 -4.008710015385604208e+01
-3.544229941657603433e+01 -1.322533314560001338e+00 -3.159739232256002950e+00 -1.322533314560001338e+00 -4.591262039244804782e+01 2.007701176320002001e-01 -3.159739232256002950e+00 2.007701176320002001e-01 -6.562155360665606452e+01
-4.738493458841605133e+01 -1.279351805132801267e+01 1.931695346073601982e+01 -1.279351805132801267e+01 -8.987171567206408440e+01 5.943432847360006210e-01 1.931695346073601982e+01 5.943432847360006210e-01 -5.436727312384005018e+01
-3.627565474611203911e+01 7.194262548480007347e+00 -1.964679008256001946e+00 7.194262548480007347e+00 -4.120248969625603763e+01 2.552648638464002584e+00 -1.964679008256001946e+00 2.552648638464002584e+00 -2.187597575372802083e+01
-4.170600840396804188e+01 7.234097889280006743e-01 3.387597381632003302e+00 7.234097889280006743e-01 -3.243074765209603072e+01 -1.187093155840001302e+00 3.387597381632003302e+00 -1.185499742208001139e+00 -5.324869675417605919e+01
-5.595431310131206004e+01 6.378434768896005913e+00 -1.754189067468801611e+01 6.378434768896005913e+00 -7.739528693350406741e+01 2.098525753344002265e+00 -1.754029726105601839e+01 2.098525753344002265e+00 -8.635983202713609330e+01
-4.713317523456004210e+01 -6.706677977088006948e+00 -2.987650560000002731e+00 -6.706677977088006948e+00 -2.707369102131202609e+01 -1.098818040627201142e+01 -2.987650560000002731e+00 -1.098818040627201142e+01 -3.623263257804803317e+01
-1.776974882406401690e+01 -4.448810860544004875e+00 -2.113025817395202210e+01 -4.448810860544004875e+00 -2.699242692608002869e+01 9.050589429760009352e+00 -2.113025817395202210e+01 9.050589429760009352e+00 -3.741494549299203243e+01
-6.619040227328007120e+01 -4.134908375040004636e+00 5.694860320768005302e+00 -4.134908375040004636e+00 -4.726542856601604825e+01 2.093745512448002000e+00 5.694860320768005302e+00 2.093745512448002000e+00 -6.423847057408005412e+01
-2.216757044838402280e+01 -3.052980518912002950e+00 -1.455902035558401408e+01 -3.052980518912002950e+00 -5.083945534259204635e+01 -3.878368780288004025e+00 -1.455902035558401408e+01 -3.876775366656003641e+00 -5.708563678003205411e+01
-2.722825214361602519e+01 1.789403508736001847e+00 2.015668244480002258e+00 1.789403508736001847e+00 -4.087583990169603965e+01 1.300703547801601268e+01 2.015668244480002258e+00 1.300862889164801217e+01 -3.312069575475203465e+01
-5.350682976256005219e+01 -1.113796128768001159e+00 -1.035081495347201042e+01 -1.113796128768001159e+00 -3.783401327820804028e+01 1.178488722227201180e+01 -1.035081495347201042e+01 1.178488722227201180e+01 -3.627087450521603529e+01
-4.316557529088004053e+00 -1.694914080358401876e+01 -1.300066182348801291e+01 -1.694914080358401876e+01 -1.199203099443201204e+01 -7.430087766016006512e+00 -1.300066182348801291e+01 -7.430087766016006512e+00 -2.450988848742402482e+01
-3.189217384448003401e+01 1.138334698700801084e+01 1.035559519436800890e+01 1.138334698700801084e+01 -3.028760631705603146e+01 6.915415162880006683e+00 1.035559519436800890e+01 6.915415162880006683e+00 -5.815800415436805082e+01
-1.420050228838401374e+01 1.451599818752001392e+00 4.624086360064004531e+00 1.451599818752001392e+00 -5.116769855078405271e+01 -2.047536517120001953e+00 4.624086360064004531e+00 -2.047536517120001953e+00 -4.130287475507203965e+01
-2.930925034700803167e+01 -1.491435159552001455e+00 -5.395298557952005858e+00 -1.491435159552001455e+00 -4.133792985497603922e+01 -9.405920669696010705e+00 -5.395298557952005858e+00 -9.405920669696010705e+00 -3.090744421990403268e+01
-6.236302272921606260e+01 1.498924203622401485e+01 -1.834815797248001701e+01 1.498924203622401485e+01 -6.459539522764806918e+01 6.150576619520006005e+00 -1.834815797248001701e+01 6.150576619520006005e+00 -5.548744290713605665e+01
-2.576390501580802450e+01 7.503384793088007321e+00 -3.001991282688003082e+00 7.501791379456007824e+00 -2.499269281792002673e+01 1.297516720537601209e+01 -3.001991282688003082e+00 1.297516720537601209e+01 -4.388261142528003944e+01
-6.902667853824006272e+01 -1.103757622886401180e+01 -1.577479495680001453e-01 -1.103757622886401180e+01 -4.724471418880004592e+01 -9.692735123456008850e+00 -1.577479495680001453e-01 -9.692735123456008850e+00 -5.260336423321605537e+01
-5.512414459904005781e+01 -4.953922981888005062e+00 -1.491594500915201493e+01 -4.953922981888005062e+00 -6.118230322790406461e+01 -1.154428176384001148e+01 -1.491594500915201493e+01 -1.154428176384001148e+01 -2.881529212108802795e+01
-5.242171507916805240e+01 2.549461811200002814e-01 -2.399202905702402333e+01 2.549461811200002814e-01 -1.241587902054401304e+01 7.345636843520007009e-01 -2.399202905702402333e+01 7.345636843520007009e-01 -1.924524984729601940e+01
-4.179045932646404538e+01 2.103305994240002086e+00 1.368582968524801302e+01 2.103305994240002086e+00 -5.834762037657605305e+01 2.345504866304002345e+00 1.368582968524801302e+01 2.343911452672002405e+00 -3.252475905638403475e+01
-4.703757041664005101e+01 -6.373654528000007036e-02 1.404753457971201236e+01 -6.373654528000007036e-02 -3.349992819916803199e+01 -6.278049710080005896e-01 1.404753457971201236e+01 -6.278049710080005896e-01 -5.454892227788805315e+01
-3.459779019161603486e+01 -1.284610070118401204e+01 2.681715142656002637e+00 -1.284610070118401204e+01 -5.563085013401605750e+01 -7.304208089088008116e+00 2.681715142656002637e+00 -7.304208089088008116e+00 -3.083892743372803125e+01
-4.987544009523205091e+01 5.043154145280004386e+00 3.000397869056002698e+00 5.041560731648004889e+00 -6.540962959360007289e+01 7.361570979840007523e-01 3.000397869056002698e+00 7.361570979840007523e-01 -4.814817971814404984e+01
-4.440365768294404347e+01 6.940909780992006617e+00 2.225998843904002378e+00 6.940909780992006617e+00 -2.368928046694402312e+01 -9.391579947008009910e+00 2.225998843904002378e+00 -9.389986533376008637e+00 -5.040923366195204380e+01
-2.617659914649602726e+01 -1.156818296832001103e+00 5.366617112576005155e+00 -1.155224883200001162e+00 -3.535306825318403412e+01 -5.001725390848005048e+00 5.366617112576005155e+00 -5.001725390848005048e+00 -8.646659074048008620e+01
-3.765714436505604112e+01 1.699056955801601632e+01 -3.465674649600003043e+00 1.699056955801601632e+01 -4.396706234777604294e+01 -1.468011979161601666e+01 -3.464081235968003547e+00 -1.467852637798401361e+01 -5.442304260096005208e+01
-5.464134026854406301e+01 4.988978081792005526e+00 -2.820342128640002777e+00 4.988978081792005526e+00 -5.780585974169605379e+01 4.596998328320004212e+00 -2.820342128640002777e+00 4.596998328320004212e+00 -6.418270109696007353e+01
-4.574371854745604793e+01 1.234098857984001185e+01 1.194582199910401243e+01 1.234098857984001185e+01 -4.178408567193604028e+01 -1.756738529280001870e+01 1.194582199910401243e+01 -1.756738529280001870e+01 -5.504128709017604848e+01
-3.347762040832003549e+01 -8.368608395264008237e+00 -1.731721935257601785e+01 -8.368608395264008237e+00 -5.976735192268806429e+01 -1.392802855731201461e+01 -1.731721935257601785e+01 -1.392802855731201461e+01 -6.246022096076806207e+01
-4.989296764518405070e+01 7.320142225408007519e+00 -3.425839308800003313e-01 7.321735639040007904e+00 -3.645889731379203624e+01 -8.832291762176009087e+00 -3.425839308800003313e-01 -8.832291762176009087e+00 -6.112653375078406270e+01
-4.428893190144004421e+01 3.973973598208003999e+00 6.335412600832007080e+00 3.973973598208003999e+00 -3.359393960345603602e+01 6.641348018176006285e+00 6.335412600832007080e+00 6.641348018176006285e+00 -4.316238846361604686e+01
-6.453643892326407183e+01 -5.145132617728005009e+00 -2.181383262208002272e+00 -5.145132617728005009e+00 -3.626131402342403476e+01 7.125745762304007691e+00 -2.181383262208002272e+00 7.125745762304007691e+00 -4.266364999680004644e+01
-4.924922853785605525e+01 -1.665117245440001614e+00 6.137829310464006483e+00 -1.665117245440001614e+00 -5.605629157376006333e+01 2.046102444851202051e+01 6.137829310464006483e+00 2.046102444851202051e+01 -6.733287984742406707e+01
-3.217261464371203061e+01 -5.404859039744005500e+00 6.461292277760005476e+00 -5.403265626112005116e+00 -4.400211744768004252e+01 2.374186311680002159e-01 6.461292277760005476e+00 2.374186311680002159e-01 -4.607036834201604591e+01
-2.947815219200002801e+01 -3.503916576768003388e+00 -7.616517160960007971e+00 -3.503916576768003388e+00 -5.738679195648005305e+01 -1.457973473280001375e+00 -7.616517160960007971e+00 -1.457973473280001375e+00 -5.031522225766405398e+01
-1.787332071014401791e+01 8.129596350464007415e+00 -8.843445657600009113e+00 8.129596350464007415e+00 -3.530526584422403147e+01 -1.086867438387201013e+01 -8.843445657600009113e+00 -1.086867438387201013e+01 -3.621032478720003667e+01
-3.172964565401603210e+01 2.931881082880002931e-01 -6.230247301120006576e-01 2.931881082880002931e-01 -5.688327324876806301e+01 1.136422602342401156e+01 -6.230247301120006576e-01 1.136422602342401156e+01 -5.293957450956804678e+01
-4.049182721638403848e+01 3.341388386304003255e+00 -1.702562465792001589e+01 3.341388386304003255e+00 -6.504473787187207279e+01 -5.760190279680005965e+00 -1.702562465792001589e+01 -5.760190279680005965e+00 -8.008337573068807558e+01
-3.665966743142403317e+01 8.551850962944008927e+00 -1.269313299251201421e+01 8.550257549312009431e+00 -4.449607567360003912e+01 1.035400178073601118e+01 -1.269313299251201421e+01 1.035240836710400991e+01 -4.593174135603204888e+01
-4.070215781580804304e+01 -1.629743462809601340e+01 -3.413091999744003235e+00 -1.629743462809601340e+01 -4.096029082419204315e+01 -2.782100201472002876e+00 -3.413091999744003235e+00 -2.782100201472002876e+00 -6.837815919001606346e+01
-2.362713733529602322e+01 -2.087371857920002238e+00 1.546567271219201523e+01 -2.087371857920002238e+00 -3.690186630348803476e+01 1.008630829056000877e+01 1.546567271219201523e+01 1.008630829056000877e+01 -4.661212897689604517e+01
-3.021908953088003003e+01 2.461824061440002431e+00 2.168635953152002305e+00 2.461824061440002431e+00 -4.430645945139204400e+01 -9.082457702400009936e+00 2.168635953152002305e+00 -9.082457702400009936e+00 -4.105111540121604463e+01
-5.680519598080005750e+01 1.030938619904001108e+01 -1.317275049574401358e+01 1.030938619904001108e+01 -1.463709762355201427e+01 1.082724562944001079e+01 -1.317275049574401358e+01 1.082724562944001079e+01 -1.077386627276800937e+02
-4.009506722201604134e+01 -1.262302279270401328e+01 2.050723344384001834e+00 -1.262142937907201201e+01 -3.184755826278403390e+01 6.152170033152005502e+00 2.049129930752001894e+00 6.152170033152005502e+00 -4.929862436044805207e+01
-3.269366090137603464e+01 -1.528561697177601708e+01 5.545079439360005580e-01 -1.528721038540801480e+01 -3.924099751526404134e+01 -1.065037671628800986e+01 5.545079439360005580e-01 -1.065037671628800986e+01 -4.189243779891204156e+01
-3.122612694630403141e+01 -4.611339051008004120e+00 -2.581967449292802641e+01 -4.611339051008004120e+00 -1.783507878297601934e+01 1.374797281689601469e+01 -2.581967449292802641e+01 1.374797281689601469e+01 -4.124073162342403975e+01
-5.575194957004805474e+01 -1.258318745190401167e+01 -5.369803939840005924e+00 -1.258318745190401167e+01 -8.029211291648008952e+00 1.496215400448001498e+00 -5.368210526208005540e+00 1.496215400448001498e+00 -3.700703160320003349e+01
-7.134828220006406241e+01 2.228388964352001977e+01 2.205284466688002265e+00 2.228388964352001977e+01 -5.276270559641604763e+01 4.040896970752004158e+00 2.205284466688002265e+00 4.042490384384004543e+00 -4.814817971814404984e+01
-6.375725965721606059e+01 -7.184702066688006816e+00 -5.481342894080005745e-01 -7.184702066688006816e+00 -7.010382615347207036e+01 -1.469924075520001594e+01 -5.481342894080005745e-01 -1.469924075520001594e+01 -5.240100070195205006e+01
-2.541654084403202418e+01 7.825254346752006818e+00 1.606160941056001601e+00 7.825254346752006818e+00 -5.463974685491205463e+01 3.220926315724803146e+01 1.606160941056001601e+00 3.220926315724803146e+01 -5.153577709977604826e+01
-7.171476733542407089e+01 1.568875062067201753e+01 -1.635798434611201913e+01 1.568875062067201753e+01 -5.558623455232005739e+01 -6.364094046208006894e+00 -1.635798434611201913e+01 -6.364094046208006894e+00 -6.425599812403206101e+01
-5.056698161152004900e+01 -1.329225651814401488e+01 -8.974105575424008663e+00 -1.329225651814401488e+01 -7.911617365606407759e+01 -2.404461170688002358e+00 -8.974105575424008663e+00 -2.404461170688002358e+00 -4.274650750566404156e+01
-3.914539269734403604e+01 3.518257299456003295e+00 -7.425307525120007357e-01 3.518257299456003295e+00 -6.570281770188806547e+01 -7.951134023680007656e-01 -7.425307525120007357e-01 -7.951134023680007656e-01 -4.276403505561604135e+01
-2.391873202995202519e+01 -5.312441049088005407e+00 1.007037415424001026e+01 -5.312441049088005407e+00 -5.670640433561605676e+01 -1.047988145766401047e+01 1.007037415424001026e+01 -1.047988145766401047e+01 -3.780055159193604197e+01
-3.753285810176003423e+01 3.648917217280003733e+00 5.494090203136005712e+00 3.647323803648003349e+00 -4.591740063334404454e+01 -2.970123010048002943e+00 5.494090203136005712e+00 -2.968529596416003002e+00 -3.162926059520003008e+01
-2.788155173273602827e+01 -2.012481417216001933e+00 -1.211472384409601233e+01 -2.012481417216001933e+00 -3.272712258764803295e+01 -1.751161581568001724e+00 -1.211472384409601233e+01 -1.751161581568001724e+00 -2.733819768422402419e+01
-4.508404530380804687e+01 -1.195856930816001196e+01 -3.977160425472003880e+00 -1.195856930816001196e+01 -7.138015047270405944e+01 1.085114683392001123e+00 -3.977160425472003880e+00 1.085114683392001123e+00 -5.773893636915205718e+01
-3.703093280768003837e+01 -7.367944634368006618e+00 4.214579056640004318e+00 -7.367944634368006618e+00 -9.647004152217608919e+01 -1.258637427916801244e+01 4.214579056640004318e+00 -1.258637427916801244e+01 -7.857919326208008215e+01
-2.257070409728002502e+01 -5.849421443072005289e+00 -3.801884925952003780e+00 -5.849421443072005289e+00 -1.340220205875201387e+01 1.805815669145601632e+01 -3.801884925952003780e+00 1.805815669145601632e+01 -4.188447073075204230e+01
-4.938148186931205430e+01 1.420528252928001400e+01 -3.575620190208003368e+00 1.420528252928001400e+01 -5.406611794739205834e+01 1.019306700390401055e+01 -3.575620190208003368e+00 1.019306700390401055e+01 -3.890797406617603826e+01
-4.859274212147204963e+01 -3.417872240640003945e+00 5.707607629824005713e+00 -3.417872240640003945e+00 -4.071490512486403901e+01 3.019518832640002870e+00 5.707607629824005713e+00 3.019518832640002870e+00 -4.814180606361605186e+01
-3.460735067340803539e+01 -5.975301120000006128e-01 -1.947151458304001936e+00 -5.975301120000006128e-01 -4.888911705702405186e+01 5.556233334784005606e+00 -1.947151458304001936e+00 5.556233334784005606e+00 -4.863895111680005101e+01
-4.962049391411204624e+01 8.604433612800008735e-01 4.589031260160004733e-01 8.604433612800008735e-01 -6.105483013734405517e+01 -8.419597631488008105e+00 4.589031260160004733e-01 -8.418004217856008609e+00 -4.041056312115204463e+01
-1.689018449920001785e+01 4.522107887616003907e+00 -2.670561247232002611e+00 4.522107887616003907e+00 -2.297702457344002269e+01 6.548930027520006858e-01 -2.670561247232002611e+00 6.548930027520006858e-01 -4.183666832179204675e+01
-3.593785105612803932e+01 -9.286414647296009406e+00 2.366219243520002458e+00 -9.286414647296009406e+00 -3.807302532300803932e+01 2.576390501580802450e+01 2.366219243520002458e+00 2.576390501580802450e+01 -4.757933105152005027e+01
-4.268277096038404039e+01 1.478687850496001488e+00 6.690743840768005768e+00 1.478687850496001488e+00 -1.664001855897601700e+01 -9.847296245760009725e+00 6.690743840768005768e+00 -9.847296245760009725e+00 -3.435877814681603581e+01
-4.600503838310404348e+01 -1.644402868224001502e+00 -3.464081235968003547e+00 -1.645996281856001664e+00 -6.807381718630406908e+01 1.815216809574401680e+01 -3.465674649600003043e+00 1.815216809574401680e+01 -5.209665869824005568e+01
-4.712361475276804867e+01 1.228999934361601198e+01 8.921522925568009299e+00 1.228999934361601198e+01 -5.161226095411205961e+01 1.770282545152001896e+00 8.921522925568009299e+00 1.770282545152001896e+00 -4.375832516198404676e+01
-1.786854046924801764e+01 6.542556372992007319e+00 1.096746602905601087e+01 6.542556372992007319e+00 -4.349381849907204156e+01 -4.716504350720004402e-01 1.096746602905601087e+01 -4.716504350720004402e-01 -3.114964309196803072e+01
-4.598910424678404496e+01 1.156818296832001103e+01 -1.390094052556801607e+01 1.156818296832001103e+01 -5.987411063603205719e+01 -8.668170158080008569e-01 -1.389934711193601302e+01 -8.668170158080008569e-01 -4.173468984934404347e+01
-5.376496277094405229e+01 -1.467374613708801512e+01 -9.193996656640008425e+00 -1.467374613708801512e+01 -2.337059774054402439e+01 -9.308722438144009459e+00 -9.193996656640008425e+00 -9.308722438144009459e+00 -5.610409398272005177e+01
-3.985924200448003774e+01 9.114325975040009631e-01 6.591952195584006802e+00 9.114325975040009631e-01 -6.445198800076806833e+01 9.804274077696009115e+00 6.591952195584006802e+00 9.802680664064009619e+00 -2.483494486835202508e+01
-3.387916064358403645e+01 -3.569246535680003163e+00 2.690319576268802493e+01 -3.569246535680003163e+00 -5.616623711436805877e+01 1.501473665433601568e+01 2.690319576268802493e+01 1.501473665433601568e+01 -5.887185346150405962e+01
-2.560137682534402970e+01 -7.259592507392007121e+00 -5.720354938880005236e+00 -7.261185921024007506e+00 -6.257813356953606387e+01 -1.663842514534401573e+01 -5.720354938880005236e+00 -1.663842514534401573e+01 -4.812268510003204369e+01
-4.539954120294404305e+01 -1.123834634649601227e+01 3.819412475904003568e+00 -1.123834634649601227e+01 -6.022466163507206716e+01 -3.086442205184003029e+00 3.819412475904003568e+00 -3.086442205184003029e+00 -7.446818609152006729e+01
-2.980798881382403209e+01 -5.999202324480005899e+00 1.566962965708801647e+01 -5.999202324480005899e+00 -4.483547277721604729e+01 -1.207010826240001222e+01 1.566962965708801647e+01 -1.207010826240001222e+01 -3.547257427558403720e+01
-3.059991538892802865e+01 -9.735757291520009460e+00 -7.326515879936006392e+00 -9.735757291520009460e+00 -3.400822714777603295e+01 2.118443423744001919e+01 -7.326515879936006392e+00 2.118443423744001919e+01 -4.310024533196804697e+01