-3.008323240000000078e+04
-3.008476060000000143e+04
-3.008450730000000112e+04
-3.008522360000000117e+04
-3.008460970000000088e+04
-3.008157099999999991e+04
-3.008434909999999945e+04
-3.008642770000000019e+04
-3.008425960000000123e+04
-3.008731929999999920e+04
-3.008219440000000031e+04
-3.008804149999999936e+04
-3.008360840000000098e+04
-3.008493029999999999e+04
-3.008209370000000126e+04
-3.008697079999999914e+04
-3.008647269999999844e+04
-3.008624209999999948e+04
-3.008090950000000157e+04
-3.008609930000000168e+04
-3.008808169999999882e+04
-3.008146549999999843e+04
-3.008695219999999972e+04
-3.008271970000000147e+04
-3.008499940000000061e+04
-3.008483190000000104e+04
-3.008615279999999984e+04
-3.008333239999999932e+04
-3.008700470000000132e+04
-3.008790889999999854e+04
-3.008509470000000147e+04
-3.008416600000000108e+04
-3.008288070000000153e+04
-3.008708290000000125e+04
-3.008725990000000093e+04
-3.008524599999999919e+04
-3.008388720000000103e+04
-3.008254769999999917e+04
-3.008094199999999910e+04
-3.008236360000000059e+04
-3.008752690000000075e+04
-3.008338680000000022e+04
-3.008184820000000036e+04
-3.008247980000000098e+04
-3.008626510000000053e+04
-3.008629130000000077e+04
-3.008553419999999824e+04
-3.008009100000000035e+04
-3.008284230000000025e+04
-3.008412930000000051e+04
-3.008136390000000029e+04
-3.008413160000000062e+04
-3.008514479999999821e+04
-3.008702400000000125e+04
-3.008337229999999909e+04
-3.008606230000000141e+04
-3.008321129999999903e+04
-3.008456169999999838e+04
-3.008599680000000080e+04
-3.008471610000000146e+04
-3.008498240000000078e+04
-3.008943360000000030e+04
-3.008445990000000165e+04
-3.008182849999999962e+04
-3.008553859999999986e+04
-3.008739110000000073e+04
-3.008856610000000001e+04
-3.008593869999999879e+04
-3.008356669999999940e+04
-3.008749769999999990e+04
-3.008462540000000081e+04
-3.008414400000000023e+04
-3.008124339999999938e+04
-3.008249060000000100e+04
-3.008303280000000086e+04
-3.008615520000000106e+04
-3.008564990000000034e+04
-3.008407170000000042e+04
-3.008768360000000030e+04
-3.008441229999999996e+04
-3.008535450000000128e+04
-3.008581320000000051e+04
-3.008466110000000117e+04
-3.008660680000000139e+04
-3.008312629999999990e+04
-3.008432319999999891e+04
-3.008523979999999938e+04
-3.008643519999999990e+04
-3.008099989999999889e+04
-3.008666500000000087e+04
-3.008465699999999924e+04
-3.008023270000000048e+04
-3.008430400000000009e+04
-3.008438609999999971e+04
-3.008272009999999864e+04
-3.008270569999999861e+04
-3.008462749999999869e+04
-3.008087489999999889e+04
-3.008598930000000109e+04
-3.008380329999999958e+04
-3.008523459999999977e+04
-3.008667789999999877e+04
-3.008223709999999846e+04
-3.008483269999999902e+04
-3.008559899999999834e+04
-3.008468939999999930e+04
-3.008602089999999953e+04
-3.008746050000000105e+04
-3.008489819999999963e+04
-3.008594029999999839e+04
-3.008392160000000149e+04
-3.007966540000000168e+04
-3.008562350000000151e+04
-3.008640590000000157e+04
-3.008632180000000153e+04
-3.008406369999999879e+04
-3.008292390000000159e+04
-3.008798519999999917e+04
-3.008246610000000146e+04
-3.008473719999999958e+04
-3.008667599999999948e+04
-3.008219649999999820e+04
-3.008471020000000135e+04
-3.008546380000000136e+04
-3.007784939999999915e+04
-3.008316059999999925e+04
-3.007856580000000031e+04
-3.008580150000000140e+04
-3.008160930000000008e+04
-3.008746719999999914e+04
-3.008549859999999899e+04
-3.008698579999999856e+04
-3.008478759999999966e+04
-3.008229160000000047e+04
-3.008793980000000010e+04
-3.008717109999999957e+04
-3.007763769999999931e+04
-3.008388790000000154e+04
-3.008537889999999970e+04
-3.008279369999999835e+04
-3.008200899999999820e+04
-3.008821610000000146e+04
-3.007983629999999903e+04
-3.008506550000000061e+04
-3.008339930000000095e+04
-3.008901339999999982e+04
-3.008126619999999821e+04
-3.008481659999999829e+04
-3.008362789999999950e+04
-3.008718360000000030e+04
-3.008499130000000150e+04
-3.008686490000000049e+04
-3.008447279999999955e+04
-3.008193739999999889e+04
-3.008692810000000100e+04
-3.008207779999999912e+04
-3.008550270000000091e+04
-3.008362010000000009e+04
-3.008700080000000162e+04
-3.007987879999999859e+04
-3.008199669999999969e+04
-3.008717390000000159e+04
-3.008379230000000098e+04
-3.008558589999999822e+04
-3.008797650000000067e+04
-3.008452460000000065e+04
-3.008295030000000042e+04
-3.008611720000000059e+04
-3.008406710000000021e+04
-3.008774970000000030e+04
-3.008507969999999841e+04
-3.008844700000000012e+04
-3.008261769999999888e+04
-3.008276290000000154e+04
-3.008428570000000036e+04
-3.008432029999999941e+04
-3.008400340000000142e+04
-3.008659790000000066e+04
-3.008689860000000044e+04
-3.008525969999999870e+04
-3.008391170000000056e+04
-3.008516960000000108e+04
-3.008908060000000114e+04
-3.008802999999999884e+04
-3.008402130000000034e+04
-3.008663360000000102e+04
-3.008611829999999827e+04
-3.008676849999999831e+04
-3.008141319999999905e+04
-3.008349650000000111e+04
-3.008765980000000127e+04
-3.008658339999999953e+04
-3.008549039999999877e+04
-3.008712759999999980e+04
-3.008218609999999899e+04
-3.008106959999999890e+04
-3.008753190000000177e+04
-3.008293340000000171e+04
-3.008695089999999982e+04
-3.008681019999999990e+04
-3.007960250000000087e+04
-3.008765000000000146e+04
-3.008468100000000049e+04
-3.008402750000000015e+04
-3.008812410000000091e+04
-3.008452260000000024e+04
-3.008569959999999992e+04
-3.008161660000000120e+04
-3.008632749999999942e+04
-3.008126719999999841e+04
-3.008421240000000034e+04
-3.008725289999999950e+04
-3.008279859999999826e+04
-3.008305879999999888e+04
-3.008510429999999906e+04
-3.008302460000000065e+04
-3.008393089999999938e+04
-3.008812989999999991e+04
-3.008412250000000131e+04
-3.008391070000000036e+04
-3.008339020000000164e+04
-3.008314189999999871e+04
-3.008048900000000140e+04
-3.008591489999999976e+04
-3.008416920000000027e+04
-3.008495019999999931e+04
-3.008620279999999912e+04
-3.007989960000000065e+04
-3.008481039999999848e+04
-3.008447360000000117e+04
-3.008589830000000075e+04
-3.008545190000000002e+04
-3.008366359999999986e+04
-3.008071860000000015e+04
-3.008352690000000075e+04
-3.008646029999999882e+04
-3.008585789999999906e+04
-3.008013000000000102e+04
-3.008180180000000109e+04
-3.008491639999999825e+04
-3.008744050000000061e+04
-3.008589389999999912e+04
-3.008206880000000092e+04
-3.008443349999999919e+04
-3.008480429999999978e+04
-3.008462979999999880e+04
-3.008275230000000010e+04
-3.008334679999999935e+04
-3.008346159999999873e+04
-3.008495560000000114e+04
-3.008283499999999913e+04
-3.008317290000000139e+04
-3.008236769999999888e+04
-3.008253459999999905e+04
-3.008305500000000029e+04
-3.008457860000000073e+04
-3.008584530000000086e+04
-3.008716100000000006e+04
-3.008659070000000065e+04
-3.008566660000000047e+04
-3.008189700000000084e+04
-3.007995829999999842e+04
-3.008494299999999930e+04
-3.008368929999999818e+04
-3.008263330000000133e+04
-3.008501940000000104e+04
-3.008595950000000084e+04
-3.008488989999999831e+04
-3.008701780000000144e+04
-3.008567669999999998e+04
-3.008421670000000086e+04
-3.008541920000000027e+04
-3.008504369999999835e+04
-3.008664849999999933e+04
-3.008667620000000170e+04
-3.008443010000000140e+04
-3.008613060000000041e+04
-3.008958789999999863e+04
-3.008370319999999992e+04
-3.008798790000000008e+04
-3.007873040000000037e+04
-3.008085369999999966e+04
-3.008650289999999950e+04
-3.008612480000000141e+04
-3.008405210000000079e+04
-3.008521589999999924e+04
-3.008636880000000019e+04
-3.008545539999999892e+04
-3.008613249999999971e+04
-3.008382270000000062e+04
-3.008650579999999900e+04
-3.008297650000000067e+04
-3.008441200000000026e+04
-3.008227079999999842e+04
-3.008353889999999956e+04
-3.008768370000000141e+04
-3.008459800000000178e+04
-3.008906209999999919e+04
-3.008331409999999960e+04
-3.008647109999999884e+04
-3.007960719999999856e+04
-3.008466879999999946e+04
-3.008515220000000045e+04
-3.008440330000000176e+04
-3.008028050000000076e+04
-3.008378410000000076e+04
-3.008091939999999886e+04
-3.008206350000000020e+04
-3.008444989999999962e+04
-3.008643309999999838e+04
-3.008510770000000048e+04
-3.008298440000000119e+04
-3.008111279999999897e+04
-3.008471470000000045e+04
-3.008039310000000114e+04
-3.008420079999999871e+04
-3.008253779999999824e+04
-3.008119229999999880e+04
-3.008624499999999898e+04
-3.008322499999999854e+04
-3.008624740000000020e+04
-3.008526589999999851e+04
-3.008365199999999822e+04
-3.008184130000000005e+04
-3.008475330000000031e+04
-3.008477289999999994e+04
-3.008236179999999877e+04
-3.008154249999999956e+04
-3.008539890000000014e+04
-3.008303090000000157e+04
-3.008615520000000106e+04
-3.008521930000000066e+04
-3.008453039999999964e+04
-3.008769060000000172e+04
-3.008711040000000139e+04
-3.007913439999999900e+04
-3.008116719999999987e+04
-3.008756299999999828e+04
-3.008681330000000162e+04
-3.008525509999999849e+04
-3.008269529999999941e+04
-3.008492380000000048e+04
-3.008480459999999948e+04
-3.008501959999999963e+04
-3.008553589999999895e+04
-3.008235959999999977e+04
-3.008637960000000021e+04
-3.008816460000000006e+04
-3.008749840000000040e+04
-3.008420379999999932e+04
-3.008413209999999890e+04
-3.008115959999999905e+04
-3.008644220000000132e+04
-3.008785770000000048e+04
-3.008465429999999833e+04
-3.008404620000000068e+04
-3.008337359999999899e+04
-3.008678970000000118e+04
-3.008497460000000137e+04
-3.008550219999999899e+04
-3.009028770000000077e+04
-3.008569889999999941e+04
-3.008258770000000004e+04
-3.008490989999999874e+04
-3.008818839999999909e+04
-3.008686390000000029e+04
-3.008412419999999838e+04
-3.008601949999999852e+04
-3.008086950000000070e+04
-3.008287059999999838e+04
-3.008351190000000133e+04
-3.008314619999999923e+04
-3.008600890000000072e+04
-3.008519210000000021e+04
-3.008485329999999885e+04
-3.008293909999999960e+04
-3.008948370000000068e+04
-3.008760729999999967e+04
-3.008717819999999847e+04
-3.008212949999999910e+04
-3.008450679999999920e+04
-3.008126719999999841e+04
-3.008631000000000131e+04
-3.008672669999999925e+04
-3.008408610000000044e+04
-3.008542729999999938e+04
-3.008641619999999966e+04
-3.007971410000000105e+04
-3.008535169999999925e+04
-3.008559430000000066e+04
-3.008704990000000180e+04
-3.007988620000000083e+04
-3.008622629999999845e+04
-3.008059089999999924e+04
-3.008394979999999850e+04
-3.008660819999999876e+04
-3.008457040000000052e+04
-3.008341979999999967e+04
-3.008561939999999959e+04
-3.008724399999999878e+04
-3.008763109999999870e+04
-3.008615850000000137e+04
-3.008758020000000033e+04
-3.008577560000000085e+04
-3.008676599999999962e+04
-3.008107440000000133e+04
-3.008334549999999945e+04
-3.008686339999999836e+04
-3.008795079999999871e+04
-3.008617169999999896e+04
-3.008680670000000100e+04
-3.008490139999999883e+04
-3.008694369999999981e+04
-3.008752049999999872e+04
-3.008461160000000018e+04
-3.008448129999999946e+04
-3.009061379999999917e+04
-3.008303480000000127e+04
-3.008520829999999842e+04
-3.008534930000000168e+04
-3.008230659999999989e+04
-3.008027240000000165e+04
-3.008106850000000122e+04
-3.008588910000000033e+04
-3.008325930000000153e+04
-3.008317109999999957e+04
-3.008611230000000069e+04
-3.008630939999999828e+04
-3.008501680000000124e+04
-3.008295939999999973e+04
-3.008738100000000122e+04
-3.008353779999999824e+04
-3.008452160000000003e+04
-3.008491530000000057e+04
-3.008653670000000056e+04
-3.008271410000000105e+04
-3.008720490000000063e+04
-3.008425200000000041e+04
-3.008195890000000145e+04
-3.008569570000000022e+04
-3.008590049999999974e+04
-3.008431599999999889e+04
-3.008411560000000100e+04
-3.008472590000000127e+04
-3.008626489999999831e+04
-3.008627309999999852e+04
-3.008660050000000047e+04
-3.008197039999999834e+04
-3.008596700000000055e+04
-3.008467109999999957e+04
-3.008672829999999885e+04
-3.008313929999999891e+04
-3.008270769999999902e+04
-3.008721649999999863e+04
-3.008590000000000146e+04
-3.008136290000000008e+04
-3.008673969999999827e+04
-3.008373960000000079e+04
-3.008631880000000092e+04
-3.008676020000000062e+04
-3.008212989999999991e+04
-3.008530380000000150e+04
-3.008405480000000171e+04
-3.008401580000000104e+04
-3.008454780000000028e+04
-3.008628589999999895e+04
-3.008223219999999856e+04
-3.008189310000000114e+04
-3.008432119999999850e+04
-3.008540650000000096e+04
-3.008793379999999888e+04
-3.008363560000000143e+04
-3.008218500000000131e+04
-3.008448319999999876e+04
-3.008377649999999994e+04
-3.008408220000000074e+04
-3.008408810000000085e+04
-3.008363049999999930e+04
-3.008544919999999911e+04
-3.008447629999999845e+04
-3.008010380000000077e+04
-3.008493460000000050e+04
-3.008641259999999966e+04
-3.008433929999999964e+04
-3.008505549999999857e+04
-3.008236260000000038e+04
-3.008560770000000048e+04
-3.008739640000000145e+04
-3.008668530000000101e+04
-3.008351380000000063e+04
-3.008874750000000131e+04
-3.008684100000000035e+04
-3.008383759999999893e+04
-3.008475110000000132e+04
-3.008552209999999832e+04
-3.008435619999999835e+04
-3.008466470000000118e+04
-3.008467039999999906e+04
-3.008469399999999951e+04
-3.008419210000000021e+04
-3.008735029999999824e+04
-3.008808339999999953e+04
-3.008642770000000019e+04
-3.008454139999999825e+04
-3.008472810000000027e+04
-3.008666509999999835e+04
-3.008328640000000087e+04
-3.008275409999999829e+04
-3.008672889999999825e+04
-3.008402439999999842e+04
-3.008393149999999878e+04
-3.008393300000000090e+04
-3.008044340000000011e+04
-3.008628729999999996e+04
-3.008275310000000172e+04
-3.008125920000000042e+04
-3.008383190000000104e+04
-3.008243089999999938e+04
-3.008326280000000042e+04
-3.008506940000000031e+04
-3.008325899999999820e+04
-3.008661980000000040e+04
-3.008716170000000056e+04
-3.008559960000000137e+04
-3.008384860000000117e+04
-3.008327579999999944e+04
-3.008685180000000037e+04
-3.008547350000000006e+04
-3.008358360000000175e+04
-3.008735880000000179e+04
-3.008187370000000010e+04
-3.008496310000000085e+04
-3.008558859999999913e+04
-3.008578110000000015e+04
-3.008372820000000138e+04
-3.008253770000000077e+04
-3.008403589999999895e+04
-3.008734430000000066e+04
-3.008456550000000061e+04
-3.008356009999999878e+04
-3.008565650000000096e+04
-3.008443409999999858e+04
-3.008284049999999843e+04
-3.008506989999999860e+04
-3.008762250000000131e+04
-3.008436010000000169e+04
-3.008363230000000112e+04
-3.008325590000000011e+04
-3.008356550000000061e+04
-3.008460399999999936e+04
-3.008842499999999927e+04
-3.008282549999999901e+04
-3.008380059999999867e+04
-3.008556499999999869e+04
-3.008307449999999881e+04
-3.008591949999999997e+04
-3.008460659999999916e+04
-3.008464129999999932e+04
-3.008460840000000098e+04
-3.008269670000000042e+04
-3.008385970000000088e+04
-3.008622820000000138e+04
-3.008275100000000020e+04
-3.008433079999999973e+04
-3.008102520000000004e+04
-3.008814089999999851e+04
-3.008303250000000116e+04
-3.008527400000000125e+04
-3.008596169999999984e+04
-3.008174190000000090e+04
-3.008534080000000176e+04
-3.008317650000000140e+04
-3.008316080000000147e+04
-3.008756799999999930e+04
-3.008413300000000163e+04
-3.008627980000000025e+04
-3.008491890000000058e+04
-3.008745860000000175e+04
-3.008415139999999883e+04
-3.008320009999999820e+04
-3.008596809999999823e+04
-3.008557050000000163e+04
-3.008713249999999971e+04
-3.008667130000000179e+04
-3.008805459999999948e+04
-3.008802969999999914e+04
-3.008449650000000111e+04
-3.008536500000000160e+04
-3.008474160000000120e+04
-3.008287269999999990e+04
-3.008558380000000034e+04
-3.008223170000000027e+04
-3.008598170000000027e+04
-3.008354520000000048e+04
-3.008440299999999843e+04
-3.008670999999999913e+04
-3.008613660000000164e+04
-3.008467770000000019e+04
-3.008582159999999931e+04
-3.008637450000000172e+04
-3.008080600000000049e+04
-3.008061709999999948e+04
-3.008583510000000024e+04
-3.008758069999999861e+04
-3.008502030000000013e+04
-3.008612269999999990e+04
-3.008628389999999854e+04
-3.008605280000000130e+04
-3.008539610000000175e+04
-3.008685910000000149e+04
-3.008464689999999973e+04
-3.008271960000000036e+04
-3.008326060000000143e+04
-3.008604630000000179e+04
-3.008170790000000125e+04
-3.008407310000000143e+04
-3.008495569999999861e+04
-3.008863049999999930e+04
-3.008533859999999913e+04
-3.008714020000000164e+04
-3.008237619999999879e+04
-3.008053600000000006e+04
-3.008318029999999999e+04
-3.008579230000000098e+04
-3.008228250000000116e+04
-3.008666110000000117e+04
-3.008976750000000175e+04
-3.008488859999999841e+04
-3.008521020000000135e+04
-3.008871740000000136e+04
-3.008561600000000180e+04
-3.008589559999999983e+04
-3.008418869999999879e+04
-3.008717759999999907e+04
-3.008578399999999965e+04
-3.008734370000000126e+04
-3.008350590000000011e+04
-3.008401120000000083e+04
-3.008384289999999964e+04
-3.008363000000000102e+04
-3.008161520000000019e+04
-3.008706309999999939e+04
-3.008698969999999827e+04
-3.008550619999999981e+04
-3.008742599999999948e+04
-3.008097669999999925e+04
-3.008548700000000099e+04
-3.008486739999999918e+04
-3.008319659999999931e+04
-3.008553559999999925e+04
-3.008691700000000128e+04
-3.008868769999999859e+04
-3.008947379999999976e+04
-3.008476020000000062e+04
-3.008639089999999851e+04
-3.008649390000000130e+04
-3.008380809999999838e+04
-3.008383260000000155e+04
-3.008433339999999953e+04
-3.008628719999999885e+04
-3.008706190000000061e+04
-3.008565209999999934e+04
-3.008264310000000114e+04
-3.008598389999999927e+04
-3.008459590000000026e+04
-3.008460580000000118e+04
-3.008538929999999891e+04
-3.008632330000000002e+04
-3.008864730000000054e+04
-3.008793929999999818e+04
-3.008679460000000108e+04
-3.008916479999999865e+04
-3.008332530000000042e+04
-3.008541969999999856e+04
-3.008494299999999930e+04
-3.008368119999999908e+04
-3.008944919999999911e+04
-3.008398649999999907e+04
-3.008337960000000021e+04
-3.008529309999999896e+04
-3.008098319999999876e+04
-3.008602720000000045e+04
-3.008451239999999962e+04
-3.008368709999999919e+04
-3.008113409999999931e+04
-3.008509590000000026e+04
-3.008468400000000111e+04
-3.008258850000000166e+04
-3.008492799999999988e+04
-3.008604609999999957e+04
-3.008591960000000108e+04
-3.008663790000000154e+04
-3.008065759999999864e+04
-3.008401870000000054e+04
-3.008167699999999968e+04
-3.008628129999999874e+04
-3.008322869999999966e+04
-3.008370179999999891e+04
-3.008605189999999857e+04
-3.008561079999999856e+04
-3.008525530000000072e+04
-3.008347390000000087e+04
-3.008849750000000131e+04
-3.008537150000000111e+04
-3.008520669999999882e+04
-3.008991690000000017e+04
-3.008173879999999917e+04
-3.008280770000000120e+04
-3.008732860000000073e+04
-3.008771830000000045e+04
-3.008541500000000087e+04
-3.008654699999999866e+04
-3.008655949999999939e+04
-3.008727279999999882e+04
-3.008056330000000162e+04
-3.008716400000000067e+04
-3.008367350000000079e+04
-3.008789319999999861e+04
-3.008372820000000138e+04
-3.008315450000000055e+04
-3.008249699999999939e+04
-3.008827860000000146e+04
-3.008277569999999832e+04
-3.008550449999999910e+04
-3.008588940000000002e+04
-3.008658280000000013e+04
-3.008683250000000044e+04
-3.008870929999999862e+04
-3.008631820000000153e+04
-3.008517169999999896e+04
-3.008783269999999902e+04
-3.008597130000000107e+04
-3.008523619999999937e+04
-3.007972810000000027e+04
-3.008873029999999926e+04
-3.008751819999999861e+04
-3.008504760000000169e+04
-3.008462510000000111e+04
-3.008639319999999861e+04
-3.008535499999999956e+04
-3.008350189999999930e+04
-3.008385039999999935e+04
-3.008708789999999863e+04
-3.008540390000000116e+04
-3.008382010000000082e+04
-3.008372320000000036e+04
-3.008272759999999835e+04
-3.008991779999999926e+04
-3.008843089999999938e+04
-3.008245379999999932e+04
-3.008328389999999854e+04
-3.008377850000000035e+04
-3.008198630000000048e+04
-3.008693379999999888e+04
-3.008962199999999939e+04
-3.008676220000000103e+04
-3.008176020000000062e+04
-3.008427110000000175e+04
-3.008435499999999956e+04
-3.008458469999999943e+04
-3.008415399999999863e+04
-3.008550709999999890e+04
-3.008438829999999871e+04
-3.008990850000000137e+04
-3.008497330000000147e+04
-3.008123589999999967e+04
-3.008407400000000052e+04
-3.008505819999999949e+04
-3.008505270000000019e+04
-3.008315840000000026e+04
-3.008593219999999928e+04
-3.008499309999999969e+04
-3.008335640000000058e+04
-3.008681120000000010e+04
-3.008487359999999899e+04
-3.008000749999999971e+04
-3.008541359999999986e+04
-3.008787029999999868e+04
-3.008623319999999876e+04
-3.007998870000000170e+04
-3.008382119999999850e+04
-3.008367309999999998e+04
-3.008267490000000180e+04
-3.008539559999999983e+04
-3.008557890000000043e+04
-3.008182200000000012e+04
-3.008531560000000172e+04
-3.008511869999999908e+04
-3.008295769999999902e+04
-3.008683260000000155e+04
-3.008415450000000055e+04
-3.008296960000000036e+04
-3.008675140000000101e+04
-3.008253399999999965e+04
-3.008610970000000088e+04
-3.008325800000000163e+04
-3.008650400000000081e+04
-3.008286809999999969e+04
-3.008044459999999890e+04
-3.008455129999999917e+04
-3.007990650000000096e+04
-3.008416180000000168e+04
-3.008487749999999869e+04
-3.008094180000000051e+04
-3.008682359999999971e+04
-3.008542780000000130e+04
-3.008142840000000069e+04
-3.008462090000000171e+04
-3.008402769999999873e+04
-3.008402509999999893e+04
-3.008542450000000099e+04
-3.008676280000000042e+04
-3.008756739999999991e+04
-3.008821380000000136e+04
-3.008837410000000091e+04
-3.008722090000000026e+04
-3.008431550000000061e+04
-3.008483759999999893e+04
-3.008456429999999818e+04
-3.008656279999999970e+04
-3.008550349999999889e+04
-3.008507609999999841e+04
-3.008595179999999891e+04
-3.008495469999999841e+04
-3.008568379999999888e+04
-3.008146459999999934e+04
-3.008364930000000095e+04
-3.008540699999999924e+04
-3.008283060000000114e+04
-3.008646630000000005e+04
-3.008044480000000112e+04
-3.008664939999999842e+04
-3.008408580000000075e+04
-3.008333030000000144e+04
-3.008566619999999966e+04
-3.008603029999999853e+04
-3.008274759999999878e+04
-3.008325570000000153e+04
-3.008576710000000094e+04
-3.008333640000000014e+04
-3.008578919999999925e+04
-3.008629339999999866e+04
-3.007971789999999964e+04
-3.008386309999999867e+04
-3.008513090000000011e+04
-3.008414549999999872e+04
-3.008564600000000064e+04
-3.008237570000000051e+04
-3.008640290000000095e+04
-3.008233120000000054e+04
-3.008296610000000146e+04
-3.008700110000000132e+04
-3.008315260000000126e+04
-3.008615750000000116e+04
-3.008405860000000030e+04
-3.008460640000000058e+04
-3.008314329999999973e+04
-3.008799720000000161e+04
-3.008357349999999860e+04
-3.008485389999999825e+04
-3.008954530000000159e+04
-3.008547439999999915e+04
-3.008635280000000057e+04
-3.008244060000000172e+04
-3.008778529999999955e+04
-3.008562459999999919e+04
-3.008149980000000141e+04
-3.008323479999999836e+04
-3.008180470000000059e+04
-3.008289280000000144e+04
-3.008077119999999923e+04
-3.008245739999999932e+04
-3.008505960000000050e+04
-3.008088850000000093e+04
-3.008904030000000057e+04
-3.008342770000000019e+04
-3.009006000000000131e+04
-3.008294280000000072e+04
-3.008689519999999902e+04
-3.008384999999999854e+04
-3.008706929999999920e+04
-3.008335290000000168e+04
-3.008440850000000137e+04
-3.008739919999999984e+04
-3.008678779999999824e+04
-3.008199810000000070e+04
-3.008185029999999824e+04
-3.008504809999999998e+04
-3.008873510000000169e+04
-3.008810910000000149e+04
-3.008684200000000055e+04
-3.008857630000000063e+04
-3.008666410000000178e+04
-3.008511469999999827e+04
-3.008629179999999906e+04
-3.008594970000000103e+04
-3.008367180000000008e+04
-3.008781699999999910e+04
-3.008605610000000161e+04
-3.008211839999999938e+04
-3.008625749999999971e+04
-3.008939119999999821e+04
-3.008418519999999990e+04
-3.008091200000000026e+04
-3.008847839999999997e+04
-3.008280419999999867e+04
-3.008315369999999893e+04
-3.008375049999999828e+04
-3.008374820000000182e+04
-3.008769559999999910e+04
-3.007925029999999970e+04
-3.008289579999999842e+04
-3.008260510000000068e+04
-3.008192209999999977e+04
-3.008055549999999857e+04
-3.008653159999999843e+04
-3.008458580000000075e+04
-3.008482800000000134e+04
-3.008573719999999958e+04
-3.008354439999999886e+04
-3.008764939999999842e+04
-3.008495999999999913e+04
-3.008426150000000052e+04
-3.008295780000000013e+04
-3.008325869999999850e+04
-3.008208339999999953e+04
-3.008466679999999906e+04
-3.008639150000000154e+04
-3.008501710000000094e+04
-3.008168969999999899e+04
-3.008568059999999969e+04
-3.008589250000000175e+04
-3.008605719999999928e+04
-3.008258229999999821e+04
-3.008186799999999857e+04
-3.008600999999999840e+04
-3.008719870000000083e+04
-3.008168070000000080e+04
-3.008083750000000146e+04
-3.008721120000000155e+04
-3.008461260000000038e+04
-3.008607900000000154e+04
-3.008353610000000117e+04
-3.008540950000000157e+04
-3.008361520000000019e+04
-3.008085459999999875e+04
-3.008751020000000062e+04
-3.008163869999999952e+04
-3.008508209999999963e+04
-3.008381629999999859e+04
-3.008330540000000110e+04
-3.008572590000000127e+04
-3.008615669999999955e+04
-3.008572090000000026e+04
-3.008483499999999913e+04
-3.008435759999999937e+04
-3.008728120000000126e+04
-3.008167559999999867e+04
-3.008056950000000143e+04
-3.008412059999999838e+04
-3.008700790000000052e+04
-3.008338790000000154e+04
-3.008346860000000015e+04
-3.008403729999999996e+04
-3.008814740000000165e+04
-3.008640320000000065e+04
-3.008749390000000130e+04
-3.008165869999999995e+04
-3.008269009999999980e+04
-3.008869280000000072e+04
-3.008549490000000151e+04
-3.008442069999999876e+04
-3.008359990000000107e+04
-3.008624680000000080e+04
-3.008680840000000171e+04
-3.008689879999999903e+04
-3.008481889999999839e+04
-3.008600809999999910e+04
-3.008482830000000104e+04
-3.008026610000000073e+04
-3.008643270000000120e+04
-3.008162050000000090e+04
-3.008529829999999856e+04
-3.008779079999999885e+04
-3.008470769999999902e+04
-3.008355549999999857e+04
-3.008690620000000126e+04
-3.008636270000000150e+04
-3.008779699999999866e+04
-3.008238590000000113e+04
-3.008767439999999988e+04
-3.008021970000000147e+04
-3.008562500000000000e+04
-3.008274880000000121e+04
-3.008493660000000091e+04
-3.008611019999999917e+04
-3.008463660000000164e+04
-3.008363009999999849e+04
-3.008173619999999937e+04
-3.008123930000000109e+04
-3.008765820000000167e+04
-3.008474510000000009e+04
-3.008771849999999904e+04
-3.008370160000000033e+04
-3.008580380000000150e+04
-3.008462259999999878e+04
-3.008849009999999907e+04
-3.008385520000000179e+04
-3.008344239999999991e+04
-3.008521319999999832e+04
-3.008506390000000101e+04
-3.008290850000000137e+04
-3.008875300000000061e+04
-3.008423949999999968e+04
-3.008382649999999921e+04
-3.008488539999999921e+04
-3.008240639999999985e+04
-3.008436500000000160e+04
-3.008181149999999980e+04
-3.008541900000000169e+04
-3.008569930000000022e+04
-3.008444900000000052e+04
-3.008452479999999923e+04
-3.008418319999999949e+04
-3.008519210000000021e+04
-3.008261149999999907e+04
-3.008288409999999931e+04
-3.008524569999999949e+04
-3.008722750000000087e+04
-3.008794210000000021e+04
-3.008610840000000098e+04
-3.008850539999999819e+04
-3.008279590000000098e+04
-3.008357140000000072e+04
-3.008484460000000036e+04
-3.008576619999999821e+04
-3.008634300000000076e+04
-3.008371889999999985e+04
-3.008624910000000091e+04
-3.008573800000000119e+04
-3.008453299999999945e+04
-3.008118960000000152e+04
-3.008757570000000123e+04
-3.008462440000000061e+04
-3.008657690000000002e+04
-3.008185499999999956e+04
-3.008372079999999914e+04
-3.008541440000000148e+04
-3.008689419999999882e+04
-3.008428510000000097e+04
-3.008410090000000127e+04
-3.008470330000000104e+04
-3.008681320000000051e+04
-3.008258469999999943e+04
-3.008301619999999821e+04
-3.008542329999999856e+04
-3.007915940000000046e+04
-3.008334850000000006e+04
-3.008663780000000042e+04
-3.008511500000000160e+04
-3.008701619999999821e+04
-3.008664010000000053e+04
-3.008336779999999999e+04
-3.008439679999999862e+04
-3.008520579999999973e+04
-3.008279859999999826e+04
-3.008736560000000100e+04
-3.008414199999999983e+04
-3.008560780000000159e+04
-3.008417550000000119e+04
-3.008603350000000137e+04
-3.008420650000000023e+04
-3.008600709999999890e+04
-3.008279320000000007e+04
-3.008489770000000135e+04
-3.008252539999999863e+04
-3.008140030000000115e+04
-3.008335619999999835e+04
-3.008641440000000148e+04
-3.008587090000000171e+04
-3.008476670000000013e+04
-3.008829179999999906e+04
-3.008391700000000128e+04
-3.008725960000000123e+04
-3.008858039999999892e+04
-3.008468409999999858e+04
-3.008813989999999831e+04
-3.008316240000000107e+04
-3.008377699999999822e+04
-3.008606209999999919e+04
-3.008733840000000055e+04
-3.008102660000000105e+04
-3.008480159999999887e+04
-3.008528229999999894e+04
-3.008488000000000102e+04
-3.008360399999999936e+04
-3.008595560000000114e+04
-3.008283280000000013e+04
-3.008266540000000168e+04
-3.008599720000000161e+04
-3.008668590000000040e+04
-3.008144099999999889e+04
-3.008348990000000049e+04
-3.007990680000000066e+04
-3.008485480000000098e+04
-3.008360610000000088e+04
-3.008319870000000083e+04
-3.008361370000000170e+04
-3.008743890000000101e+04
-3.008283620000000155e+04
-3.008419110000000001e+04
-3.008679160000000047e+04
-3.008514470000000074e+04
-3.008470409999999902e+04
-3.008487600000000020e+04
-3.008558220000000074e+04
-3.008627260000000024e+04
-3.008223280000000159e+04
-3.008337299999999959e+04
-3.008226900000000023e+04
-3.008496129999999903e+04
-3.008390399999999863e+04
-3.008732330000000002e+04
-3.008483680000000095e+04
-3.008497969999999987e+04
-3.008577030000000013e+04
-3.008273879999999917e+04
-3.008157010000000082e+04
-3.008302860000000146e+04
-3.008153600000000006e+04
-3.008277300000000105e+04
-3.008366700000000128e+04
-3.008520500000000175e+04
-3.008244229999999880e+04
-3.008079130000000077e+04
-3.008355610000000161e+04
-3.008201800000000003e+04
-3.008331789999999819e+04
-3.008452140000000145e+04
-3.008517439999999988e+04
-3.008485320000000138e+04
-3.008541219999999885e+04
-3.008570300000000134e+04
-3.008440550000000076e+04
-3.007935759999999937e+04
-3.008512189999999828e+04
-3.008386409999999887e+04
-3.008077609999999913e+04
-3.008493019999999888e+04
-3.008610469999999987e+04
-3.008764010000000053e+04
-3.008305789999999979e+04
-3.008790139999999883e+04