-5.646420546355206227e+01 6.960030744576007677e+00 9.150974488576009591e+00 6.960030744576007677e+00 -6.008762806272006429e+01 -1.582259736576001607e+00 9.150974488576009591e+00 -1.582259736576001607e+00 -3.929198675148803943e+01
-5.320886141337604869e+01 9.033061879808009564e+00 -4.840790614016004412e+00 9.033061879808009564e+00 -5.527870572134405336e+01 -3.792324444160004027e-01 -4.840790614016004412e+00 -3.792324444160004027e-01 -5.547947583897605739e+01
-4.350178556723204082e+01 -1.034603471257601015e+01 -5.192935026688005884e+00 -1.034603471257601015e+01 -6.297330015027206684e+01 7.280306884608007678e+00 -5.192935026688005884e+00 7.280306884608007678e+00 -4.941972379648004932e+01
-5.339688422195204964e+01 -1.906041386598402099e+01 7.288273952768006936e+00 -1.906041386598402099e+01 -4.295524469145604485e+01 -3.903863398400003959e+00 7.288273952768006936e+00 -3.903863398400003959e+00 -3.905616153395204293e+01
-2.006745128140801882e+01 -6.517061754880006497e+00 -1.111087325593601172e+01 -6.517061754880006497e+00 -4.464585655500804506e+01 2.925507428352002837e+00 -1.111087325593601172e+01 2.923914014720002896e+00 -4.183029466726404166e+01
-3.978594497740804314e+01 3.811445407744003866e+00 -5.696453734400005686e+00 3.811445407744003866e+00 -5.811976222720005580e+01 -3.395564449792003447e+00 -5.696453734400005686e+00 -3.395564449792003447e+00 -5.788712383692806185e+01
-3.477147227750403857e+01 4.517327646720004530e+00 -1.049422218035200949e+01 4.517327646720004530e+00 -5.614392932352006227e+01 1.979338413670402019e+01 -1.049422218035200949e+01 1.979497755033602147e+01 -5.401353529753605187e+01
-5.902960141107206482e+01 -3.256937463808002864e+00 4.168370061312003827e+00 -3.256937463808002864e+00 -2.786402418278402493e+01 1.065993719808001039e+01 4.168370061312003827e+00 1.065993719808001039e+01 -3.277970523750403231e+01
-4.192111924428804315e+01 3.408311758848002970e+00 3.425839308800003646e+00 3.408311758848002970e+00 -5.859141266227205591e+01 1.508006661324801456e+01 3.425839308800003646e+00 1.508006661324801456e+01 -4.443552595558404050e+01
1.058823358464000997e+01 -2.549461811200002814e-01 -9.915813031936011157e+00 -2.549461811200002814e-01 -2.136130315059202189e+01 -1.179126087680001156e+00 -9.915813031936011157e+00 -1.179126087680001156e+00 -1.223263645286401236e+01
-5.295869547315205494e+01 -4.404195278848004769e+00 -8.137563418624008449e+00 -4.402601865216004384e+00 -5.604035743744005771e+01 4.251227570176004278e+00 -8.137563418624008449e+00 4.251227570176004278e+00 -1.847085082214401908e+01
-5.412348083814404731e+01 9.323063160832010254e+00 1.378621474406401326e+01 9.323063160832010254e+00 -4.242145112473604485e+01 5.380957835264005062e+00 1.378621474406401326e+01 5.380957835264005062e+00 -5.957614228684806079e+01
-5.569299326566405028e+01 -3.966006530048003853e+00 3.255344050176003368e+00 -3.967599943680004237e+00 -5.032318932582404614e+01 1.391846807552001408e+01 3.255344050176003368e+00 1.391687466188801459e+01 -3.940671253299203869e+01
-4.652130439987204369e+01 -8.446685663232008423e+00 9.533393760256009486e+00 -8.446685663232008423e+00 -3.747230838374403561e+01 -6.215906578432005780e+00 9.533393760256009486e+00 -6.215906578432005780e+00 -4.632372110950404931e+01
-8.049288303411208290e+01 8.907182202880009614e-01 -4.743592382464004942e+00 8.907182202880009614e-01 -5.499985833574405092e+01 -7.975035228160007428e+00 -4.743592382464004942e+00 -7.975035228160007428e+00 -6.880997428428807439e+01
-4.568157541580804804e+01 -1.303412350976001388e+00 1.969459249152001767e+00 -1.303412350976001388e+00 -6.321390560870406006e+01 2.900012810240003014e-01 1.969459249152001767e+00 2.884078673920003055e-01 -1.914964502937601765e+01
-7.029025554841607004e+01 1.983481289113602131e+01 -1.127658827366401084e+01 1.983481289113602131e+01 -4.502349558579204825e+01 1.846607058124801881e+01 -1.127658827366401084e+01 1.846607058124801881e+01 -6.388632616140805709e+01
-4.400211744768004252e+01 -8.397289840640008718e-01 4.713317523456004743e+00 -8.397289840640008718e-01 -6.065488331571206260e+01 4.565130055680004517e+00 4.713317523456004743e+00 4.565130055680004517e+00 -4.444986667827204485e+01
-7.953364802764808417e+01 9.061743325184009379e+00 -2.049767296204802136e+01 9.061743325184009379e+00 -6.608523697356805826e+01 -5.280572776448005712e+00 -2.049767296204802136e+01 -5.278979362816005327e+00 -6.213197775257606281e+01
-5.601964306022405538e+01 -1.303093668249601222e+01 1.802310159155201674e+01 -1.303093668249601222e+01 -3.796626660966403932e+01 -6.536182718464005781e+00 1.802310159155201674e+01 -6.536182718464005781e+00 -4.856724750336005059e+01
-5.545876146176006216e+01 3.773203480576003521e+00 -1.871942334873601865e+01 3.773203480576003521e+00 -2.413543628390402418e+01 -5.441507553280005460e+00 -1.871942334873601865e+01 -5.441507553280005460e+00 -2.373389604864002322e+01
-7.303411382272007302e+01 1.197131661721601148e+01 -9.311909265408010228e+00 1.197131661721601148e+01 -5.885751273881605528e+01 9.201963724800009459e+00 -9.313502679040009724e+00 9.201963724800009459e+00 -6.452687844147206420e+01
-3.679351417651204059e+01 -6.083653246976006734e+00 -1.248120897945601193e+01 -6.083653246976006734e+00 -2.490027482726402397e+01 -3.945292152832003740e+00 -1.248120897945601193e+01 -3.945292152832003740e+00 -4.002973726310403890e+01
-7.654918429491208087e+01 -4.616119291904004385e+00 -2.429955788800002736e+00 -4.616119291904004385e+00 -6.649474427699206558e+01 1.330500382720001262e+01 -2.429955788800002736e+00 1.330341041356801490e+01 -5.840657668096005750e+01
-6.435000952832005794e+01 3.870401712128004323e+00 -1.218642745753601275e+01 3.870401712128004323e+00 -2.799468410060802981e+01 1.139290746880001093e+00 -1.218802087116801225e+01 1.139290746880001093e+00 -5.090797212876805133e+01
-5.533447519846405527e+01 3.814632235008003747e+00 -1.324126728192001323e+01 3.814632235008003747e+00 -6.314060858163206547e+01 9.719823155200010945e+00 -1.324126728192001323e+01 9.719823155200010945e+00 -3.491965974528003613e+01
-5.330127940403205855e+01 -6.293983846400006854e+00 8.921522925568009299e+00 -6.293983846400006854e+00 -6.623820468224006675e+01 7.759924387840007931e+00 8.921522925568009299e+00 7.759924387840007931e+00 -5.070401518387205186e+01
-4.529915614412804103e+01 1.363484044902401493e+01 1.197450344448001225e+01 1.363484044902401493e+01 -4.293931055513603923e+01 9.412294324224008690e+00 1.197450344448001225e+01 9.412294324224008690e+00 -5.591607117414405081e+01
-4.012852890828803964e+01 -1.538600203059201554e+01 4.748372623360004319e-01 -1.538600203059201554e+01 -2.721709824819202694e+01 -4.050457452544003800e+00 4.748372623360004319e-01 -4.050457452544003800e+00 -5.029450788044805165e+01
-5.093187333324804911e+01 7.740803424256008647e+00 -1.930898639257602056e+01 7.742396837888007255e+00 -2.650802918195202906e+01 -5.470188998656005275e+00 -1.930898639257602056e+01 -5.470188998656005275e+00 -4.986906644070404582e+01
-4.403239230668804538e+01 6.284423364608005436e+00 -9.845702832128008453e+00 6.284423364608005436e+00 -2.685220652646402684e+01 -8.763774976000009154e-02 -9.845702832128008453e+00 -8.763774976000009154e-02 -5.369007233024005643e+01
-6.887530424320006261e+01 8.478553935872009006e+00 1.634364362342401833e+01 8.478553935872009006e+00 -3.198299842150403194e+01 7.412560216064007612e+00 1.634364362342401833e+01 7.412560216064007612e+00 -5.769272737382406291e+01
-6.959234037760006686e+01 1.217368014848001323e+01 3.650510630912003673e+00 1.217368014848001323e+01 -9.084847822848009002e+01 -1.421962325196801302e+01 3.650510630912003673e+00 -1.421802983833601530e+01 -6.680705334886405922e+01
-3.325135567257603242e+01 -1.687425036288001667e+00 -1.158252369100801182e+01 -1.687425036288001667e+00 -4.970175800934405430e+01 -5.288539844608004969e+00 -1.158252369100801182e+01 -5.288539844608004969e+00 -2.411312849305602413e+01
-4.318628966809604464e+01 1.017553945395201076e+01 8.900808548352008742e+00 1.017553945395201076e+01 -3.908484297932803742e+01 -1.337670744064001305e+01 8.902401961984008238e+00 -1.337830085427201432e+01 -5.620447904153605378e+01
-3.477943934566403072e+01 3.336608145408003434e+00 5.847828029440005349e-01 3.336608145408003434e+00 -3.957242755072003604e+01 4.812109168640004597e+00 5.847828029440005349e-01 4.812109168640004597e+00 -1.445066822860801636e+01
-6.481209948160007173e+01 -3.225069191168003613e+00 1.696348152627201600e+01 -3.225069191168003613e+00 -8.894753576550408525e+01 -3.773203480576003521e+00 1.696348152627201600e+01 -3.773203480576003521e+00 -5.338732374016005622e+01
-6.296533308211206759e+01 -2.664187592704002849e+00 3.172486541312003361e+00 -2.664187592704002849e+00 -1.892338029363201812e+01 1.406984237056001508e+00 3.172486541312003361e+00 1.406984237056001508e+00 -5.100676377395204497e+01
-5.390040292966406099e+01 3.127870959616002811e+00 1.483468091392001531e+00 3.127870959616002811e+00 -7.494302335385607705e+01 -1.727579059814401674e+01 1.483468091392001531e+00 -1.727579059814401674e+01 -4.926994291507205048e+01
-5.899932655206405485e+01 7.257999093760007625e+00 -1.289230969651201164e+01 7.257999093760007625e+00 -5.191819637145605526e+01 -3.779577135104003727e+00 -1.289230969651201164e+01 -3.779577135104003727e+00 -2.072075087052802189e+01
-4.309387167744004188e+01 -1.794024408268801807e+01 -3.027485900800003238e-01 -1.794024408268801807e+01 -4.303332195942404326e+01 1.140884160512001033e+00 -3.027485900800003238e-01 1.140884160512001033e+00 -3.596015884697603582e+01
-1.633089631436801525e+01 8.918336098304010306e+00 2.347098279936002285e+00 8.919929511936008026e+00 -3.556021202534403614e+01 7.175141584896007174e+00 2.347098279936002285e+00 7.176734998528007559e+00 -2.147124869120002444e+01
-4.332491665408004167e+01 -4.858318163968005088e+00 8.323992813568008131e+00 -4.858318163968005088e+00 -3.827220202700803497e+01 -1.785419974656001685e+01 8.323992813568008131e+00 -1.785579316019201812e+01 -4.401964499763204941e+01
-5.110555541913604571e+01 -3.452927340544003521e+00 1.011817656320000980e+00 -3.452927340544003521e+00 -3.309679455027203687e+01 -1.928030494720001931e-01 1.011817656320000980e+00 -1.928030494720001931e-01 -5.729118713856006195e+01
-5.323116920422405229e+01 -1.282697973760001275e+00 2.995617628160002766e-01 -1.282697973760001275e+00 -3.972061501849604070e+01 -1.418138132480001445e+01 2.979683491840002807e-01 -1.418138132480001445e+01 -4.184144856268804347e+01
-2.323037734092802253e+01 2.188872306278402036e+01 2.629132492800002607e-01 2.188872306278402036e+01 -4.255211104256004262e+01 1.178329380864001052e+01 2.629132492800002607e-01 1.178329380864001052e+01 -3.115282991923202971e+01
-3.073376213401602897e+01 -1.440923947417601525e+01 -1.416544718848001372e+00 -1.440923947417601525e+01 -4.176337129472004506e+01 1.289071628288001214e+01 -1.416544718848001372e+00 1.289071628288001214e+01 -6.891513958400005890e+01
-6.768661767372806537e+01 -1.220236159385601127e+01 -8.478553935872009006e+00 -1.220236159385601127e+01 -5.075819124736005250e+01 2.249262682931202306e+01 -8.478553935872009006e+00 2.249262682931202306e+01 -1.599309262438401724e+01
-4.392085335244804867e+01 -8.776522285056008954e+00 2.979683491840003029e+00 -8.776522285056008954e+00 -4.565767421132804316e+01 -1.199840464896001180e+01 2.979683491840003029e+00 -1.199840464896001180e+01 -6.752249606963206929e+01
-6.762128771481606293e+01 1.074916836147201060e+01 1.266763837440001206e+00 1.074916836147201060e+01 -3.072260823859203072e+01 1.357907097190401302e+01 1.266763837440001206e+00 1.357907097190401302e+01 -4.889549071155204985e+01
-7.133553489100808065e+01 6.109147865088006668e+00 8.220420927488008900e+00 6.110741278720006164e+00 -5.868701748019206121e+01 -7.594209370112007917e+00 8.220420927488008900e+00 -7.594209370112007917e+00 -2.628495127347202853e+01
-3.766989167411203709e+01 -2.019173754470401860e+01 1.317593732300801435e+01 -2.019173754470401860e+01 -3.088513642905603263e+01 4.222546124800004463e+00 1.317593732300801435e+01 4.222546124800004463e+00 -5.890212832051205538e+01
-5.800184961843206111e+01 5.075022417920004969e+00 1.831628969984001998e+01 5.075022417920004969e+00 -2.608577456947202577e+01 -7.441241661440006538e+00 1.831628969984001998e+01 -7.441241661440006538e+00 -4.201035040768004336e+01
-6.019279336243205591e+01 -3.738148380672003945e+00 -1.362368655360001402e+00 -3.738148380672003945e+00 -4.030539782144004590e+01 1.052927728025601084e+01 -1.362368655360001402e+00 1.052927728025601084e+01 -5.080440024268805388e+01
-4.659938166784004920e+01 2.476164784128002339e+00 1.057070603468801018e+01 2.476164784128002339e+00 -5.559101479321606121e+01 6.448544968704006841e+00 1.057070603468801018e+01 6.448544968704006841e+00 -8.685697708032009245e+01
-3.726516461158404070e+01 7.395032666112007824e+00 -8.752621080576007628e+00 7.395032666112007824e+00 -6.882112817971207619e+01 7.452395556864007453e+00 -8.752621080576007628e+00 7.452395556864007453e+00 -3.867852250316803975e+01
-4.608152223744004772e+01 -1.498605520896001586e+01 4.544415678464004849e+00 -1.498605520896001586e+01 -6.790172851404807375e+01 -4.493426442240004981e-01 4.544415678464004849e+00 -4.493426442240004981e-01 -3.976204377292803827e+01
-6.032664010752005623e+01 -8.027617878016007680e+00 3.999468216320003933e+00 -8.027617878016007680e+00 -6.210488972083205539e+01 -4.090292793344003641e+00 3.999468216320003933e+00 -4.090292793344003641e+00 -7.735067135180807441e+01
-5.109599493734404518e+01 2.794847510528002843e+00 1.555171704832001511e+00 2.794847510528002843e+00 -8.923594363289608111e+01 -4.789801377792004544e+00 1.555171704832001511e+00 -4.789801377792004544e+00 -6.470534076825606462e+01
-6.480253899980806409e+01 -1.306917860966401257e+01 -1.440286581964801549e+01 -1.306917860966401257e+01 -5.639568867737605729e+01 -8.359047913472007707e+00 -1.440286581964801549e+01 -8.359047913472007707e+00 -6.376044648448007024e+01
-5.442941625548805717e+01 -1.113955470131201153e+01 2.241932980224002225e+00 -1.113955470131201153e+01 -9.463283560448009268e+01 -1.003850588160001056e+00 2.241932980224002225e+00 -1.003850588160001056e+00 -4.217925225267204326e+01
-3.278607889203203030e+01 9.941307650048010203e+00 -7.949540610048008382e+00 9.941307650048010203e+00 -3.301075021414403210e+01 3.660071112704003760e+00 -7.949540610048008382e+00 3.660071112704003760e+00 -4.230672534323204559e+01
-5.137484232294405473e+01 -6.410303041536005608e+00 -2.304076111872002564e+00 -6.410303041536005608e+00 -4.888593022976004931e+01 1.495100010905601629e+01 -2.305669525504002060e+00 1.495100010905601629e+01 -4.580426826547204655e+01
-4.116106094182404007e+01 6.501127618560006427e-01 1.061532161638401206e+01 6.485193482240007024e-01 -3.754879223808003985e+01 -2.169113977241602242e+01 1.061532161638401206e+01 -2.169113977241602242e+01 -4.976390114099204709e+01
-6.025493649408006291e+01 1.666710659072001777e+00 5.062275108864005446e+00 1.666710659072001777e+00 -4.522107887616004263e+01 8.333553295360008661e+00 5.062275108864005446e+00 8.331959881728009165e+00 -4.646712833638405016e+01
-3.321789398630403412e+01 1.173708481331201270e+01 6.657282154496007465e+00 1.173708481331201270e+01 -4.180639346278404389e+01 5.349089562624005367e+00 6.657282154496007465e+00 5.349089562624005367e+00 -7.274729936896007132e+01
-2.572088284774402567e+01 3.103969755136003261e+00 6.756073799680006875e-01 3.103969755136003261e+00 -2.369246729420802566e+01 1.067905816166400967e+01 6.756073799680006875e-01 1.067905816166400967e+01 -5.728800031129605230e+01
-3.913264538828804007e+01 -1.419731546112001475e+00 -9.264106856448009353e+00 -1.418138132480001312e+00 -3.484954954547203698e+01 -2.998804455424003201e+00 -9.265700270080008849e+00 -2.998804455424003201e+00 -7.415587701964807366e+01
-5.809267419545605549e+01 -9.154161315840008584e+00 1.674040361779201547e+01 -9.154161315840008584e+00 -4.839197200384005271e+01 2.078767424307202205e+01 1.674040361779201547e+01 2.078767424307202205e+01 -4.757773763788804899e+01
-3.747230838374403561e+01 2.197317398528002119e+00 2.512016590848002551e+01 2.197317398528002119e+00 -5.281050800537605028e+01 -1.561545359360001495e-01 2.511857249484802423e+01 -1.561545359360001495e-01 -4.326277352243204888e+01
-6.248730899251206239e+01 -4.538042023936004199e+00 -6.585578541056007040e+00 -4.538042023936004199e+00 -5.444216356454406025e+01 2.629132492800002829e+00 -6.585578541056007040e+00 2.629132492800002829e+00 -3.958039461888004240e+01
-6.746832000614406866e+01 2.232372498432002317e+01 -8.201299963904007839e+00 2.232372498432002317e+01 -4.177293177651203848e+01 2.297702457344002358e+00 -8.201299963904007839e+00 2.299295870976002298e+00 -5.299375057305605452e+01
-3.614180800102403879e+01 6.969591226368007320e+00 -2.537670550323202434e+01 6.969591226368007320e+00 -5.838426889011206100e+01 6.389588664320005940e+00 -2.537670550323202434e+01 6.389588664320005940e+00 -4.788048622796804921e+01
-7.360933614387207058e+01 8.779709112320009723e+00 4.445624033280004550e-01 8.779709112320009723e+00 -4.146699635916803572e+01 -8.150310727680007972e+00 4.445624033280004550e-01 -8.150310727680007972e+00 -7.061849875660806219e+01
-4.883016075264004741e+01 8.827511521280009266e-01 6.303544328192006496e+00 8.827511521280009266e-01 -6.245544071987206536e+01 2.358252175360002312e+00 6.303544328192006496e+00 2.359845588992002252e+00 -5.423980003328005495e+01
-2.989084632268803077e+01 -1.499242886348801562e+01 -9.256139788288008319e+00 -1.499242886348801562e+01 -2.071597062963202163e+01 1.429292027904001561e+00 -9.256139788288008319e+00 1.429292027904001561e+00 -5.860575338496006026e+01
-3.655928237260803826e+01 -7.611736920064007705e+00 -1.271544078336001071e+01 -7.611736920064007705e+00 -1.956552598732801940e+01 5.879696302080006376e-01 -1.271544078336001071e+01 5.895630438400005779e-01 -3.645889731379203624e+01
-2.985101098188803093e+01 -4.589031260160004733e-01 -2.608418115584002717e+00 -4.589031260160004733e-01 -4.048704697548804177e+01 -3.237816500224003136e+00 -2.608418115584002717e+00 -3.237816500224003136e+00 -4.067985002496003943e+01
-4.686388833075204730e+01 -5.521178234880006030e+00 4.381887488000003827e+00 -5.521178234880006030e+00 -4.259832003788804400e+01 -7.214976925696007015e+00 4.381887488000003827e+00 -7.216570339328007400e+00 -2.355384030822402508e+01
-6.659353592217605922e+01 2.231257108889602137e+01 -3.617048944640003372e-01 2.231257108889602137e+01 -7.022333217587207344e+01 -6.711458217984006325e+00 -3.617048944640003372e-01 -6.711458217984006325e+00 -5.641480964096005835e+01
-3.676642614476804027e+01 -6.102774210560005796e-01 -6.520248582144006377e+00 -6.102774210560005796e-01 -3.187623970816002839e+01 -4.544415678464004849e+00 -6.520248582144006377e+00 -4.544415678464004849e+00 -3.456910874624003327e+01
-4.186534976716804124e+01 -8.774928871424007681e+00 1.055477189836800989e+01 -8.774928871424007681e+00 -1.161120513638401164e+01 -6.493160550400006059e+00 1.055477189836800989e+01 -6.493160550400006059e+00 -5.097170867404804540e+01
-6.565342187929606155e+01 -1.746540682035201897e+01 -1.153631469568001222e+01 -1.746540682035201897e+01 -4.277678236467203732e+01 4.158809579520004185e+00 -1.153790810931201172e+01 4.158809579520004185e+00 -6.047801440256006344e+01
-2.824803686809602965e+01 -6.956843917312006909e+00 -6.250961678336007132e+00 -6.955250503680006524e+00 -5.587304900608005198e+01 -4.308590460928003907e+00 -6.252555091968006629e+00 -4.308590460928003907e+00 -4.646234809548804634e+01
-1.603133455155201759e+01 -1.044323294412800962e+01 -3.793917857792003634e+00 -1.044323294412800962e+01 -5.217314255257605282e+01 2.723143897088002863e+00 -3.793917857792003634e+00 2.723143897088002863e+00 -3.262355070156802839e+01
-7.361411638476806729e+01 -1.055317848473601039e+01 1.031416643993600957e+01 -1.055317848473601039e+01 -4.357189576704004708e+01 -3.567653122048003667e+00 1.031416643993600957e+01 -3.569246535680003163e+00 -6.788898120499206357e+01
-3.090903763353603040e+01 4.021776007168003986e+00 7.489044070400007191e-01 4.021776007168003986e+00 -2.617819256012802498e+01 1.133076433715201148e+01 7.489044070400007191e-01 1.133235775078401097e+01 -5.813569636352005432e+01
-4.818801505894405324e+01 7.648385433600006778e+00 1.582897102028801584e+01 7.648385433600006778e+00 -5.488035231334405495e+01 -1.618908250112001568e+00 1.582897102028801584e+01 -1.618908250112001568e+00 -4.711564768460804942e+01
-4.892735898419204688e+01 -1.731084569804801632e+01 2.539901329408002617e+00 -1.731084569804801632e+01 -7.442675733708807684e+01 1.453511915110401453e+01 2.539901329408002617e+00 1.453511915110401453e+01 -9.958516517273609736e+01
-5.509386974003206205e+01 -1.071251984793600975e+01 8.766961803264008424e+00 -1.071251984793600975e+01 -3.147629288652803226e+01 -1.120010441932801015e+01 8.766961803264008424e+00 -1.120010441932801015e+01 -4.246447329280004368e+01
-5.772778247372805538e+01 3.706280108032003806e+00 -3.231442845696002930e+00 3.706280108032003806e+00 -3.886813872537604198e+01 -8.194926309376008078e+00 -3.231442845696002930e+00 -8.194926309376008078e+00 -6.547017931161606441e+01
-5.651678811340805453e+01 3.679192076288003488e+00 1.830194897715201918e+01 3.679192076288003488e+00 -7.245570467430407291e+01 -8.872127102976008928e+00 1.830194897715201918e+01 -8.872127102976008928e+00 -5.771662857830405358e+01
-5.083945534259204635e+01 -1.787810095104001684e+00 -8.330366468096007893e+00 -1.787810095104001684e+00 -5.401672212480005442e+01 -2.915946946560002973e-01 -8.330366468096007893e+00 -2.900012810240003014e-01 -3.385207261184003613e+01
-6.730579181568006675e+01 1.975992245043202189e+01 -9.735757291520009682e-01 1.975992245043202189e+01 -6.628282026393607396e+01 -1.143752305049601148e+01 -9.735757291520009682e-01 -1.143752305049601148e+01 -5.504606733107205230e+01
-5.516876018073605792e+01 -2.555835465728002465e+00 9.821801627648010680e+00 -2.555835465728002465e+00 -6.155038177689606727e+01 -4.345238974464003867e+00 9.821801627648010680e+00 -4.345238974464003867e+00 -6.317566368153606504e+01
-3.496427532697603624e+01 4.412162347008004915e+00 -5.757003452416005196e+00 4.412162347008004915e+00 -4.045677211648003890e+01 -4.154029338624003920e+00 -5.757003452416005196e+00 -4.152435924992003535e+00 -6.022944187596805676e+01
-5.633832578662405410e+01 -2.828309196800002923e+00 -5.210462576640004784e-01 -2.828309196800002923e+00 -5.290770623692804975e+01 -1.006240708608001100e+01 -5.210462576640004784e-01 -1.006240708608001100e+01 -5.515919969894405739e+01
-6.857733589401607333e+01 1.889469884825602009e+01 -7.189482307584007970e+00 1.889629226188801780e+01 -6.201406514380806811e+01 -2.505642936320002434e+01 -7.189482307584007970e+00 -2.505642936320002434e+01 -7.535890431180807525e+01
-4.305084950937604304e+01 3.255344050176003368e+00 -1.186615131750401098e+01 3.255344050176003368e+00 -6.567732308377605932e+01 -1.087186121113601089e+01 -1.186615131750401098e+01 -1.087186121113601089e+01 -3.917248072908804346e+01
-5.131588601856005027e+01 5.623156707328005766e+00 9.737350705152010732e+00 5.623156707328005766e+00 -5.561172917043205643e+01 -9.214711033856008982e+00 9.735757291520009460e+00 -9.214711033856008982e+00 -3.751692396544003572e+01
-3.877890756198404176e+01 1.719293308928001451e+01 -1.214181187584001176e+00 1.719293308928001451e+01 -5.849102760345605390e+01 -4.069578416128003973e+00 -1.214181187584001176e+00 -4.069578416128003973e+00 -1.148054521856001031e+01
-1.309307981414401389e+01 2.809188233216002750e+00 -1.065675037081601140e+01 2.809188233216002750e+00 -3.037683748044803167e+01 8.475367108608008238e+00 -1.065675037081601140e+01 8.475367108608008238e+00 -1.989217578188802094e+01
-4.672048110387204645e+01 -1.071730008883201180e+01 6.714645045248006205e+00 -1.071730008883201180e+01 -2.656379865907202387e+01 -4.042490384384004543e+00 6.713051631616006709e+00 -4.042490384384004543e+00 -2.875952264396802605e+01
-8.480147349504008503e+00 -1.604248844697601584e+01 -8.529543172096008874e+00 -1.604248844697601584e+01 -4.142238077747203562e+01 -2.363669781708802375e+01 -8.529543172096008874e+00 -2.363510440345602603e+01 -6.699666957107206144e+01
-3.483998906368003645e+01 -1.347868591308801278e+01 9.727790223360010202e+00 -1.347868591308801278e+01 -5.789827773235205655e+01 3.446553686016003315e+00 9.727790223360010202e+00 3.446553686016003315e+00 -4.408975519744004146e+01
-3.962022995968004579e+01 -4.770680414208005260e+00 2.479510952755202524e+01 -4.770680414208005260e+00 -5.779311243264005071e+01 4.679855837184004663e+00 2.479510952755202524e+01 4.679855837184004663e+00 -5.590810410598405866e+01
-4.942609745100805441e+01 3.204354813952003500e+00 -1.540512299417601483e+01 3.204354813952003500e+00 -3.908643639296003869e+01 -4.330898251776003960e+00 -1.540512299417601483e+01 -4.332491665408004344e+00 -3.377240193024002934e+01
-3.585180672000003455e+01 -4.953922981888005062e+00 4.334085079040004285e-01 -4.953922981888005062e+00 -4.275925481472004464e+01 -3.325454249984002963e+00 4.334085079040004285e-01 -3.325454249984002963e+00 -2.555198100275202933e+01
-5.952833987788806525e+01 -2.713742756659202726e+01 -3.464081235968003547e+00 -2.713583415296002599e+01 -5.530260692582405824e+01 -3.215508709376003083e+00 -3.464081235968003547e+00 -3.215508709376003083e+00 -2.913716167475202923e+01
-5.264160616038405038e+01 -5.451068035072005102e+00 4.719691177984004504e+00 -5.451068035072005102e+00 -3.827379544064003625e+01 6.579204886528006391e+00 4.719691177984004504e+00 6.579204886528006391e+00 -4.942131721011205059e+01
-6.020554067148805899e+01 7.501791379456007824e+00 2.856034593996802684e+01 7.501791379456007824e+00 -5.446606476902405092e+01 -1.373522550784001428e+00 2.855875252633603267e+01 -1.373522550784001428e+00 -6.248730899251206239e+01
-9.598564377804810022e+01 6.295577260032005462e+00 1.336555354521601302e+01 6.295577260032005462e+00 -6.016092508979205888e+01 -2.275872690585602243e+01 1.336396013158401352e+01 -2.275872690585602243e+01 -5.285831041433605293e+01
-4.259513321062404145e+01 -2.302482698240002623e+00 5.764970520576006230e+00 -2.302482698240002623e+00 -4.768927659212804571e+01 1.025202330828800967e+01 5.763377106944005845e+00 1.025202330828800967e+01 -6.668914074009606452e+01
-3.746115448832003381e+01 -8.650642608128007893e+00 1.037471615795201174e+01 -8.650642608128007893e+00 -4.029105709875204155e+01 -1.075554201600001036e+00 1.037471615795201174e+01 -1.075554201600001036e+00 -4.503464948121604294e+01
-2.470906519142402402e+01 6.458105450496006483e+00 -5.796838793216005925e+00 6.458105450496006483e+00 -3.109865385574402907e+01 2.240339566592002285e+00 -5.796838793216005925e+00 2.240339566592002285e+00 -3.693054774886403635e+01
-5.633513895936005156e+01 -4.206611988480004616e-01 -8.242728718336007177e+00 -4.206611988480004616e-01 -3.773522163302403953e+01 -1.263577010176001325e+00 -8.241135304704009457e+00 -1.263577010176001325e+00 -6.081422467891206196e+01
-5.241056118374405060e+01 2.786880442368002697e+00 -1.195060224000001059e-01 2.786880442368002697e+00 -2.892683107532802822e+01 -1.291302407372801397e+01 -1.195060224000001059e-01 -1.291143066009601448e+01 -2.174372242227202179e+01
-2.613995063296002641e+01 -7.579868647424007122e+00 1.846447716761601754e+01 -7.579868647424007122e+00 -3.451493268275203263e+01 3.526224367616003885e+00 1.846447716761601754e+01 3.526224367616003885e+00 -2.657654596812802694e+01
-6.350231347609606303e+01 -1.667029341798401632e+01 1.634842386432001637e+00 -1.667188683161601759e+01 -7.510077130342408225e+01 -2.721550483456002922e+00 1.634842386432001637e+00 -2.721550483456002922e+00 -7.319504859955206655e+01
-2.333872946790402381e+01 1.400610582528001524e+00 -1.022812210380801012e+01 1.399017168896001362e+00 -6.807222377267207492e+01 1.088779534745601119e+01 -1.022812210380801012e+01 1.088779534745601119e+01 -4.760960591052804602e+01
-2.604275240140802694e+01 -1.451121794662401498e+01 6.536182718464005781e+00 -1.451121794662401498e+01 -3.885220458905603635e+01 -1.003691246796801018e+01 6.536182718464005781e+00 -1.003691246796801018e+01 -4.195776775782404400e+01
-6.984569314508806315e+01 7.120965521408006538e+00 2.944628391936003009e+00 7.120965521408006538e+00 -6.446154848256006176e+01 5.184967958528004850e+00 2.944628391936003009e+00 5.184967958528004850e+00 -7.544176182067207037e+01
-3.458822970982403433e+01 4.412162347008004915e+00 1.760722063360001854e+01 4.412162347008004915e+00 -6.360588536217606759e+01 -1.299269475532801188e+01 1.760722063360001854e+01 -1.299110134169601416e+01 -5.151028248166405632e+01
-2.759792410624002557e+01 -9.064930152448008371e+00 -4.734031900672005300e+00 -9.064930152448008371e+00 -4.209161450291203721e+01 -1.039065029427201026e+01 -4.735625314304004796e+00 -1.039065029427201026e+01 -1.979497755033602147e+01
-6.312148761804807151e+01 -1.438055802880001366e+01 -1.248120897945601193e+01 -1.438055802880001366e+01 -1.028883116318721136e+02 -1.607435671961601642e+01 -1.248120897945601193e+01 -1.607595013324801769e+01 -4.973521969561605260e+01
-5.198511974400005187e+01 -6.348159909888005714e+00 -7.739210010624008262e+00 -6.348159909888005714e+00 -4.367865448038403997e+01 -1.399813875712001376e+01 -7.737616596992007878e+00 -1.399813875712001376e+01 -7.167333858099206623e+01
-8.546911380684808535e+01 -1.302456302796801424e+01 1.927393129267202099e+01 -1.302456302796801424e+01 -7.405867878809607419e+01 -5.460628516864005633e+00 1.927393129267202099e+01 -5.460628516864005633e+00 -4.926038243328004995e+01
-2.352515886284802349e+01 -1.881821499392001940e+00 -3.870401712128004323e+00 -1.881821499392001940e+00 -4.798883835494405048e+01 1.363962068992001342e+00 -3.870401712128004323e+00 1.363962068992001342e+00 -6.022944187596805676e+01
-5.949487819161606694e+01 1.714513068032001541e+00 -2.289735389184002212e+00 1.714513068032001541e+00 -2.897622689792002859e+01 1.817766271385601939e+01 -2.291328802816002153e+00 1.817925612748802067e+01 -6.800052015923206739e+01