1.337423700000000082e+01 0.000000000000000000e+00 0.000000000000000000e+00 0.000000000000000000e+00 1.503753000000000029e+01 0.000000000000000000e+00 0.000000000000000000e+00 0.000000000000000000e+00 1.420072299999999998e+01
1.323473199999999927e+01 0.000000000000000000e+00 0.000000000000000000e+00 0.000000000000000000e+00 1.525977199999999989e+01 0.000000000000000000e+00 0.000000000000000000e+00 0.000000000000000000e+00 1.419967699999999944e+01
1.341023500000000013e+01 0.000000000000000000e+00 0.000000000000000000e+00 0.000000000000000000e+00 1.525365299999999991e+01 0.000000000000000000e+00 0.000000000000000000e+00 0.000000000000000000e+00 1.392429500000000075e+01
1.376572999999999958e+01 0.000000000000000000e+00 0.000000000000000000e+00 0.000000000000000000e+00 1.507929599999999937e+01 0.000000000000000000e+00 0.000000000000000000e+00 0.000000000000000000e+00 1.422005500000000033e+01
1.354266199999999998e+01 0.000000000000000000e+00 0.000000000000000000e+00 0.000000000000000000e+00 1.539845700000000051e+01 0.000000000000000000e+00 0.000000000000000000e+00 0.000000000000000000e+00 1.435590400000000066e+01
1.315388500000000072e+01 0.000000000000000000e+00 0.000000000000000000e+00 0.000000000000000000e+00 1.497304600000000008e+01 0.000000000000000000e+00 0.000000000000000000e+00 0.000000000000000000e+00 1.441366299999999967e+01
1.310500500000000024e+01 0.000000000000000000e+00 0.000000000000000000e+00 0.000000000000000000e+00 1.521996900000000075e+01 0.000000000000000000e+00 0.000000000000000000e+00 0.000000000000000000e+00 1.442993599999999965e+01
1.340602499999999964e+01 0.000000000000000000e+00 0.000000000000000000e+00 0.000000000000000000e+00 1.524633200000000066e+01 0.000000000000000000e+00 0.000000000000000000e+00 0.000000000000000000e+00 1.444115200000000065e+01
1.357850600000000085e+01 0.000000000000000000e+00 0.000000000000000000e+00 0.000000000000000000e+00 1.577942499999999981e+01 0.000000000000000000e+00 0.000000000000000000e+00 0.000000000000000000e+00 1.405096699999999998e+01
1.316694799999999965e+01 0.000000000000000000e+00 0.000000000000000000e+00 0.000000000000000000e+00 1.527870700000000070e+01 0.000000000000000000e+00 0.000000000000000000e+00 0.000000000000000000e+00 1.445663700000000063e+01
1.339470000000000027e+01 0.000000000000000000e+00 0.000000000000000000e+00 0.000000000000000000e+00 1.507779200000000053e+01 0.000000000000000000e+00 0.000000000000000000e+00 0.000000000000000000e+00 1.426035899999999934e+01
1.297361100000000000e+01 0.000000000000000000e+00 0.000000000000000000e+00 0.000000000000000000e+00 1.546827000000000041e+01 0.000000000000000000e+00 0.000000000000000000e+00 0.000000000000000000e+00 1.437188800000000022e+01
1.311429399999999923e+01 0.000000000000000000e+00 0.000000000000000000e+00 0.000000000000000000e+00 1.499666599999999939e+01 0.000000000000000000e+00 0.000000000000000000e+00 0.000000000000000000e+00 1.427324699999999957e+01
1.321193399999999940e+01 0.000000000000000000e+00 0.000000000000000000e+00 0.000000000000000000e+00 1.540090999999999966e+01 0.000000000000000000e+00 0.000000000000000000e+00 0.000000000000000000e+00 1.427924499999999952e+01
1.351711300000000016e+01 0.000000000000000000e+00 0.000000000000000000e+00 0.000000000000000000e+00 1.485327200000000047e+01 0.000000000000000000e+00 0.000000000000000000e+00 0.000000000000000000e+00 1.443544200000000011e+01
1.317626100000000022e+01 0.000000000000000000e+00 0.000000000000000000e+00 0.000000000000000000e+00 1.527883800000000036e+01 0.000000000000000000e+00 0.000000000000000000e+00 0.000000000000000000e+00 1.446352500000000063e+01
1.315030900000000003e+01 0.000000000000000000e+00 0.000000000000000000e+00 0.000000000000000000e+00 1.542767800000000022e+01 0.000000000000000000e+00 0.000000000000000000e+00 0.000000000000000000e+00 1.452151899999999962e+01
1.324143800000000049e+01 0.000000000000000000e+00 0.000000000000000000e+00 0.000000000000000000e+00 1.528964399999999912e+01 0.000000000000000000e+00 0.000000000000000000e+00 0.000000000000000000e+00 1.412492800000000059e+01
1.357909599999999983e+01 0.000000000000000000e+00 0.000000000000000000e+00 0.000000000000000000e+00 1.522135600000000011e+01 0.000000000000000000e+00 0.000000000000000000e+00 0.000000000000000000e+00 1.429886800000000058e+01
1.368250699999999931e+01 0.000000000000000000e+00 0.000000000000000000e+00 0.000000000000000000e+00 1.510827500000000079e+01 0.000000000000000000e+00 0.000000000000000000e+00 0.000000000000000000e+00 1.438716699999999982e+01
1.324293899999999979e+01 0.000000000000000000e+00 0.000000000000000000e+00 0.000000000000000000e+00 1.518277499999999947e+01 0.000000000000000000e+00 0.000000000000000000e+00 0.000000000000000000e+00 1.426021199999999922e+01
1.379243600000000036e+01 0.000000000000000000e+00 0.000000000000000000e+00 0.000000000000000000e+00 1.540825399999999945e+01 0.000000000000000000e+00 0.000000000000000000e+00 0.000000000000000000e+00 1.450915200000000027e+01
1.349464599999999947e+01 0.000000000000000000e+00 0.000000000000000000e+00 0.000000000000000000e+00 1.555870400000000053e+01 0.000000000000000000e+00 0.000000000000000000e+00 0.000000000000000000e+00 1.430654499999999985e+01
1.330444699999999969e+01 0.000000000000000000e+00 0.000000000000000000e+00 0.000000000000000000e+00 1.491521499999999989e+01 0.000000000000000000e+00 0.000000000000000000e+00 0.000000000000000000e+00 1.430900199999999955e+01
1.359474799999999917e+01 0.000000000000000000e+00 0.000000000000000000e+00 0.000000000000000000e+00 1.493457700000000088e+01 0.000000000000000000e+00 0.000000000000000000e+00 0.000000000000000000e+00 1.411931200000000075e+01
1.347188799999999986e+01 0.000000000000000000e+00 0.000000000000000000e+00 0.000000000000000000e+00 1.537537599999999927e+01 0.000000000000000000e+00 0.000000000000000000e+00 0.000000000000000000e+00 1.467869400000000013e+01
1.283621100000000048e+01 0.000000000000000000e+00 0.000000000000000000e+00 0.000000000000000000e+00 1.529757799999999968e+01 0.000000000000000000e+00 0.000000000000000000e+00 0.000000000000000000e+00 1.408271700000000060e+01
1.313489000000000040e+01 0.000000000000000000e+00 0.000000000000000000e+00 0.000000000000000000e+00 1.495806299999999922e+01 0.000000000000000000e+00 0.000000000000000000e+00 0.000000000000000000e+00 1.432798499999999997e+01
1.342009299999999961e+01 0.000000000000000000e+00 0.000000000000000000e+00 0.000000000000000000e+00 1.528104599999999991e+01 0.000000000000000000e+00 0.000000000000000000e+00 0.000000000000000000e+00 1.401801000000000030e+01
1.340835799999999978e+01 0.000000000000000000e+00 0.000000000000000000e+00 0.000000000000000000e+00 1.486927099999999946e+01 0.000000000000000000e+00 0.000000000000000000e+00 0.000000000000000000e+00 1.441436700000000037e+01
1.309525299999999959e+01 0.000000000000000000e+00 0.000000000000000000e+00 0.000000000000000000e+00 1.513296599999999970e+01 0.000000000000000000e+00 0.000000000000000000e+00 0.000000000000000000e+00 1.452888100000000016e+01
1.329770899999999934e+01 0.000000000000000000e+00 0.000000000000000000e+00 0.000000000000000000e+00 1.483253400000000077e+01 0.000000000000000000e+00 0.000000000000000000e+00 0.000000000000000000e+00 1.432138999999999918e+01
1.344930599999999998e+01 0.000000000000000000e+00 0.000000000000000000e+00 0.000000000000000000e+00 1.466555199999999992e+01 0.000000000000000000e+00 0.000000000000000000e+00 0.000000000000000000e+00 1.412393199999999993e+01
1.312081000000000053e+01 0.000000000000000000e+00 0.000000000000000000e+00 0.000000000000000000e+00 1.504806699999999964e+01 0.000000000000000000e+00 0.000000000000000000e+00 0.000000000000000000e+00 1.452112699999999990e+01
1.323434899999999992e+01 0.000000000000000000e+00 0.000000000000000000e+00 0.000000000000000000e+00 1.515931600000000046e+01 0.000000000000000000e+00 0.000000000000000000e+00 0.000000000000000000e+00 1.428231199999999923e+01
1.336093400000000031e+01 0.000000000000000000e+00 0.000000000000000000e+00 0.000000000000000000e+00 1.534474400000000038e+01 0.000000000000000000e+00 0.000000000000000000e+00 0.000000000000000000e+00 1.416177799999999998e+01
1.347973999999999961e+01 0.000000000000000000e+00 0.000000000000000000e+00 0.000000000000000000e+00 1.510531899999999972e+01 0.000000000000000000e+00 0.000000000000000000e+00 0.000000000000000000e+00 1.431213900000000017e+01
1.347948000000000057e+01 0.000000000000000000e+00 0.000000000000000000e+00 0.000000000000000000e+00 1.518732199999999999e+01 0.000000000000000000e+00 0.000000000000000000e+00 0.000000000000000000e+00 1.453599999999999959e+01
1.361638899999999985e+01 0.000000000000000000e+00 0.000000000000000000e+00 0.000000000000000000e+00 1.536605400000000010e+01 0.000000000000000000e+00 0.000000000000000000e+00 0.000000000000000000e+00 1.407207999999999970e+01
1.314118999999999993e+01 0.000000000000000000e+00 0.000000000000000000e+00 0.000000000000000000e+00 1.524447400000000030e+01 0.000000000000000000e+00 0.000000000000000000e+00 0.000000000000000000e+00 1.406611599999999918e+01
1.350186599999999970e+01 0.000000000000000000e+00 0.000000000000000000e+00 0.000000000000000000e+00 1.485829400000000078e+01 0.000000000000000000e+00 0.000000000000000000e+00 0.000000000000000000e+00 1.441558400000000084e+01
1.362329500000000060e+01 0.000000000000000000e+00 0.000000000000000000e+00 0.000000000000000000e+00 1.496106400000000036e+01 0.000000000000000000e+00 0.000000000000000000e+00 0.000000000000000000e+00 1.411665400000000048e+01
1.331527700000000003e+01 0.000000000000000000e+00 0.000000000000000000e+00 0.000000000000000000e+00 1.504601500000000058e+01 0.000000000000000000e+00 0.000000000000000000e+00 0.000000000000000000e+00 1.429137899999999917e+01
1.305245999999999995e+01 0.000000000000000000e+00 0.000000000000000000e+00 0.000000000000000000e+00 1.505620399999999925e+01 0.000000000000000000e+00 0.000000000000000000e+00 0.000000000000000000e+00 1.416122299999999967e+01
1.314140000000000086e+01 0.000000000000000000e+00 0.000000000000000000e+00 0.000000000000000000e+00 1.464092400000000005e+01 0.000000000000000000e+00 0.000000000000000000e+00 0.000000000000000000e+00 1.439303499999999936e+01
1.336587800000000037e+01 0.000000000000000000e+00 0.000000000000000000e+00 0.000000000000000000e+00 1.525636300000000034e+01 0.000000000000000000e+00 0.000000000000000000e+00 0.000000000000000000e+00 1.441938799999999965e+01
1.354830800000000046e+01 0.000000000000000000e+00 0.000000000000000000e+00 0.000000000000000000e+00 1.510818899999999942e+01 0.000000000000000000e+00 0.000000000000000000e+00 0.000000000000000000e+00 1.424621100000000062e+01
1.313997900000000030e+01 0.000000000000000000e+00 0.000000000000000000e+00 0.000000000000000000e+00 1.530582799999999999e+01 0.000000000000000000e+00 0.000000000000000000e+00 0.000000000000000000e+00 1.441533699999999918e+01
1.332423099999999927e+01 0.000000000000000000e+00 0.000000000000000000e+00 0.000000000000000000e+00 1.520849300000000071e+01 0.000000000000000000e+00 0.000000000000000000e+00 0.000000000000000000e+00 1.446186400000000027e+01
1.304989400000000010e+01 0.000000000000000000e+00 0.000000000000000000e+00 0.000000000000000000e+00 1.537488800000000033e+01 0.000000000000000000e+00 0.000000000000000000e+00 0.000000000000000000e+00 1.431832099999999919e+01
1.351213699999999918e+01 0.000000000000000000e+00 0.000000000000000000e+00 0.000000000000000000e+00 1.548739899999999992e+01 0.000000000000000000e+00 0.000000000000000000e+00 0.000000000000000000e+00 1.421158800000000078e+01
1.323925299999999972e+01 0.000000000000000000e+00 0.000000000000000000e+00 0.000000000000000000e+00 1.517796099999999981e+01 0.000000000000000000e+00 0.000000000000000000e+00 0.000000000000000000e+00 1.432824100000000023e+01
1.345822899999999933e+01 0.000000000000000000e+00 0.000000000000000000e+00 0.000000000000000000e+00 1.524621299999999913e+01 0.000000000000000000e+00 0.000000000000000000e+00 0.000000000000000000e+00 1.387793500000000080e+01
1.338091900000000045e+01 0.000000000000000000e+00 0.000000000000000000e+00 0.000000000000000000e+00 1.503957499999999925e+01 0.000000000000000000e+00 0.000000000000000000e+00 0.000000000000000000e+00 1.488062799999999974e+01
1.314321200000000012e+01 0.000000000000000000e+00 0.000000000000000000e+00 0.000000000000000000e+00 1.502883899999999961e+01 0.000000000000000000e+00 0.000000000000000000e+00 0.000000000000000000e+00 1.434543900000000072e+01
1.339929799999999993e+01 0.000000000000000000e+00 0.000000000000000000e+00 0.000000000000000000e+00 1.553572999999999915e+01 0.000000000000000000e+00 0.000000000000000000e+00 0.000000000000000000e+00 1.416847500000000082e+01
1.327430099999999946e+01 0.000000000000000000e+00 0.000000000000000000e+00 0.000000000000000000e+00 1.535291499999999942e+01 0.000000000000000000e+00 0.000000000000000000e+00 0.000000000000000000e+00 1.434187599999999918e+01
1.336286800000000063e+01 0.000000000000000000e+00 0.000000000000000000e+00 0.000000000000000000e+00 1.525054399999999966e+01 0.000000000000000000e+00 0.000000000000000000e+00 0.000000000000000000e+00 1.423139300000000063e+01
1.319682800000000000e+01 0.000000000000000000e+00 0.000000000000000000e+00 0.000000000000000000e+00 1.518931599999999982e+01 0.000000000000000000e+00 0.000000000000000000e+00 0.000000000000000000e+00 1.458071100000000087e+01
1.329236099999999965e+01 0.000000000000000000e+00 0.000000000000000000e+00 0.000000000000000000e+00 1.527103699999999975e+01 0.000000000000000000e+00 0.000000000000000000e+00 0.000000000000000000e+00 1.450735599999999970e+01
1.365067400000000042e+01 0.000000000000000000e+00 0.000000000000000000e+00 0.000000000000000000e+00 1.504333199999999948e+01 0.000000000000000000e+00 0.000000000000000000e+00 0.000000000000000000e+00 1.438220100000000023e+01
1.338741800000000026e+01 0.000000000000000000e+00 0.000000000000000000e+00 0.000000000000000000e+00 1.531679300000000055e+01 0.000000000000000000e+00 0.000000000000000000e+00 0.000000000000000000e+00 1.434724399999999989e+01
1.329628100000000046e+01 0.000000000000000000e+00 0.000000000000000000e+00 0.000000000000000000e+00 1.570203799999999994e+01 0.000000000000000000e+00 0.000000000000000000e+00 0.000000000000000000e+00 1.419424799999999998e+01
1.348553500000000049e+01 0.000000000000000000e+00 0.000000000000000000e+00 0.000000000000000000e+00 1.517697599999999980e+01 0.000000000000000000e+00 0.000000000000000000e+00 0.000000000000000000e+00 1.439381599999999928e+01
1.328974700000000020e+01 0.000000000000000000e+00 0.000000000000000000e+00 0.000000000000000000e+00 1.509274100000000018e+01 0.000000000000000000e+00 0.000000000000000000e+00 0.000000000000000000e+00 1.425750000000000028e+01
1.305710999999999977e+01 0.000000000000000000e+00 0.000000000000000000e+00 0.000000000000000000e+00 1.529483600000000010e+01 0.000000000000000000e+00 0.000000000000000000e+00 0.000000000000000000e+00 1.442896799999999935e+01
1.346828099999999928e+01 0.000000000000000000e+00 0.000000000000000000e+00 0.000000000000000000e+00 1.503720900000000071e+01 0.000000000000000000e+00 0.000000000000000000e+00 0.000000000000000000e+00 1.406992900000000013e+01
1.311776200000000081e+01 0.000000000000000000e+00 0.000000000000000000e+00 0.000000000000000000e+00 1.539081599999999916e+01 0.000000000000000000e+00 0.000000000000000000e+00 0.000000000000000000e+00 1.431154100000000007e+01
1.303017700000000012e+01 0.000000000000000000e+00 0.000000000000000000e+00 0.000000000000000000e+00 1.515071999999999974e+01 0.000000000000000000e+00 0.000000000000000000e+00 0.000000000000000000e+00 1.427951499999999996e+01
1.374318500000000043e+01 0.000000000000000000e+00 0.000000000000000000e+00 0.000000000000000000e+00 1.540065700000000071e+01 0.000000000000000000e+00 0.000000000000000000e+00 0.000000000000000000e+00 1.413106100000000076e+01
1.328967500000000079e+01 0.000000000000000000e+00 0.000000000000000000e+00 0.000000000000000000e+00 1.490195600000000020e+01 0.000000000000000000e+00 0.000000000000000000e+00 0.000000000000000000e+00 1.441918300000000031e+01
1.318989200000000039e+01 0.000000000000000000e+00 0.000000000000000000e+00 0.000000000000000000e+00 1.498981200000000058e+01 0.000000000000000000e+00 0.000000000000000000e+00 0.000000000000000000e+00 1.449006100000000075e+01
1.333875500000000081e+01 0.000000000000000000e+00 0.000000000000000000e+00 0.000000000000000000e+00 1.491043499999999966e+01 0.000000000000000000e+00 0.000000000000000000e+00 0.000000000000000000e+00 1.409279699999999913e+01
1.319798600000000022e+01 0.000000000000000000e+00 0.000000000000000000e+00 0.000000000000000000e+00 1.531224500000000077e+01 0.000000000000000000e+00 0.000000000000000000e+00 0.000000000000000000e+00 1.425428100000000065e+01
1.324733299999999936e+01 0.000000000000000000e+00 0.000000000000000000e+00 0.000000000000000000e+00 1.506447999999999965e+01 0.000000000000000000e+00 0.000000000000000000e+00 0.000000000000000000e+00 1.409408299999999947e+01
1.323958099999999938e+01 0.000000000000000000e+00 0.000000000000000000e+00 0.000000000000000000e+00 1.497649799999999942e+01 0.000000000000000000e+00 0.000000000000000000e+00 0.000000000000000000e+00 1.468825000000000003e+01
1.332070299999999996e+01 0.000000000000000000e+00 0.000000000000000000e+00 0.000000000000000000e+00 1.530870299999999951e+01 0.000000000000000000e+00 0.000000000000000000e+00 0.000000000000000000e+00 1.425047900000000034e+01
1.337183899999999959e+01 0.000000000000000000e+00 0.000000000000000000e+00 0.000000000000000000e+00 1.497522000000000020e+01 0.000000000000000000e+00 0.000000000000000000e+00 0.000000000000000000e+00 1.423577900000000085e+01
1.341018299999999996e+01 0.000000000000000000e+00 0.000000000000000000e+00 0.000000000000000000e+00 1.495962300000000056e+01 0.000000000000000000e+00 0.000000000000000000e+00 0.000000000000000000e+00 1.433467899999999950e+01
1.341155700000000017e+01 0.000000000000000000e+00 0.000000000000000000e+00 0.000000000000000000e+00 1.529953500000000055e+01 0.000000000000000000e+00 0.000000000000000000e+00 0.000000000000000000e+00 1.426664500000000046e+01
1.328861799999999960e+01 0.000000000000000000e+00 0.000000000000000000e+00 0.000000000000000000e+00 1.510824399999999912e+01 0.000000000000000000e+00 0.000000000000000000e+00 0.000000000000000000e+00 1.422832799999999942e+01
1.337582899999999952e+01 0.000000000000000000e+00 0.000000000000000000e+00 0.000000000000000000e+00 1.496751800000000010e+01 0.000000000000000000e+00 0.000000000000000000e+00 0.000000000000000000e+00 1.428822300000000034e+01
1.365253500000000031e+01 0.000000000000000000e+00 0.000000000000000000e+00 0.000000000000000000e+00 1.506376999999999988e+01 0.000000000000000000e+00 0.000000000000000000e+00 0.000000000000000000e+00 1.468208199999999941e+01
1.297733900000000062e+01 0.000000000000000000e+00 0.000000000000000000e+00 0.000000000000000000e+00 1.520836199999999927e+01 0.000000000000000000e+00 0.000000000000000000e+00 0.000000000000000000e+00 1.434837199999999946e+01
1.338707699999999967e+01 0.000000000000000000e+00 0.000000000000000000e+00 0.000000000000000000e+00 1.518106200000000072e+01 0.000000000000000000e+00 0.000000000000000000e+00 0.000000000000000000e+00 1.427926700000000082e+01
1.345314399999999999e+01 0.000000000000000000e+00 0.000000000000000000e+00 0.000000000000000000e+00 1.503510700000000000e+01 0.000000000000000000e+00 0.000000000000000000e+00 0.000000000000000000e+00 1.423217999999999961e+01
1.330569900000000061e+01 0.000000000000000000e+00 0.000000000000000000e+00 0.000000000000000000e+00 1.497465299999999999e+01 0.000000000000000000e+00 0.000000000000000000e+00 0.000000000000000000e+00 1.459593699999999927e+01
1.282291400000000081e+01 0.000000000000000000e+00 0.000000000000000000e+00 0.000000000000000000e+00 1.500202700000000000e+01 0.000000000000000000e+00 0.000000000000000000e+00 0.000000000000000000e+00 1.442570699999999917e+01
1.344553299999999929e+01 0.000000000000000000e+00 0.000000000000000000e+00 0.000000000000000000e+00 1.501848500000000008e+01 0.000000000000000000e+00 0.000000000000000000e+00 0.000000000000000000e+00 1.414025099999999924e+01
1.312811400000000006e+01 0.000000000000000000e+00 0.000000000000000000e+00 0.000000000000000000e+00 1.501023200000000024e+01 0.000000000000000000e+00 0.000000000000000000e+00 0.000000000000000000e+00 1.444743899999999925e+01
1.344883699999999926e+01 0.000000000000000000e+00 0.000000000000000000e+00 0.000000000000000000e+00 1.513484599999999958e+01 0.000000000000000000e+00 0.000000000000000000e+00 0.000000000000000000e+00 1.427787499999999987e+01
1.307240999999999964e+01 0.000000000000000000e+00 0.000000000000000000e+00 0.000000000000000000e+00 1.503141699999999936e+01 0.000000000000000000e+00 0.000000000000000000e+00 0.000000000000000000e+00 1.430242699999999978e+01
1.350164200000000037e+01 0.000000000000000000e+00 0.000000000000000000e+00 0.000000000000000000e+00 1.538905699999999932e+01 0.000000000000000000e+00 0.000000000000000000e+00 0.000000000000000000e+00 1.419931099999999979e+01
1.358620499999999964e+01 0.000000000000000000e+00 0.000000000000000000e+00 0.000000000000000000e+00 1.524144000000000077e+01 0.000000000000000000e+00 0.000000000000000000e+00 0.000000000000000000e+00 1.496671199999999935e+01
1.352857000000000021e+01 0.000000000000000000e+00 0.000000000000000000e+00 0.000000000000000000e+00 1.505701799999999935e+01 0.000000000000000000e+00 0.000000000000000000e+00 0.000000000000000000e+00 1.431485600000000069e+01
1.392370999999999981e+01 0.000000000000000000e+00 0.000000000000000000e+00 0.000000000000000000e+00 1.463997099999999918e+01 0.000000000000000000e+00 0.000000000000000000e+00 0.000000000000000000e+00 1.417784699999999987e+01
1.320283900000000088e+01 0.000000000000000000e+00 0.000000000000000000e+00 0.000000000000000000e+00 1.484245199999999976e+01 0.000000000000000000e+00 0.000000000000000000e+00 0.000000000000000000e+00 1.439855599999999924e+01
1.338215100000000035e+01 0.000000000000000000e+00 0.000000000000000000e+00 0.000000000000000000e+00 1.566311999999999927e+01 0.000000000000000000e+00 0.000000000000000000e+00 0.000000000000000000e+00 1.425142600000000037e+01
1.348916799999999938e+01 0.000000000000000000e+00 0.000000000000000000e+00 0.000000000000000000e+00 1.533114300000000085e+01 0.000000000000000000e+00 0.000000000000000000e+00 0.000000000000000000e+00 1.475934400000000046e+01
1.313589699999999993e+01 0.000000000000000000e+00 0.000000000000000000e+00 0.000000000000000000e+00 1.506533400000000000e+01 0.000000000000000000e+00 0.000000000000000000e+00 0.000000000000000000e+00 1.439367400000000075e+01
1.307035699999999956e+01 0.000000000000000000e+00 0.000000000000000000e+00 0.000000000000000000e+00 1.477998200000000040e+01 0.000000000000000000e+00 0.000000000000000000e+00 0.000000000000000000e+00 1.449339999999999939e+01
1.311024699999999932e+01 0.000000000000000000e+00 0.000000000000000000e+00 0.000000000000000000e+00 1.536787099999999917e+01 0.000000000000000000e+00 0.000000000000000000e+00 0.000000000000000000e+00 1.443304299999999962e+01
1.320875400000000077e+01 0.000000000000000000e+00 0.000000000000000000e+00 0.000000000000000000e+00 1.502810200000000052e+01 0.000000000000000000e+00 0.000000000000000000e+00 0.000000000000000000e+00 1.441519699999999915e+01
1.320893799999999985e+01 0.000000000000000000e+00 0.000000000000000000e+00 0.000000000000000000e+00 1.535597399999999979e+01 0.000000000000000000e+00 0.000000000000000000e+00 0.000000000000000000e+00 1.441461900000000007e+01
1.315981500000000004e+01 0.000000000000000000e+00 0.000000000000000000e+00 0.000000000000000000e+00 1.556268099999999954e+01 0.000000000000000000e+00 0.000000000000000000e+00 0.000000000000000000e+00 1.428072099999999978e+01
1.327679700000000018e+01 0.000000000000000000e+00 0.000000000000000000e+00 0.000000000000000000e+00 1.501676499999999947e+01 0.000000000000000000e+00 0.000000000000000000e+00 0.000000000000000000e+00 1.453021500000000010e+01
1.325975900000000074e+01 0.000000000000000000e+00 0.000000000000000000e+00 0.000000000000000000e+00 1.504722100000000040e+01 0.000000000000000000e+00 0.000000000000000000e+00 0.000000000000000000e+00 1.404936200000000035e+01
1.350513399999999997e+01 0.000000000000000000e+00 0.000000000000000000e+00 0.000000000000000000e+00 1.513992099999999930e+01 0.000000000000000000e+00 0.000000000000000000e+00 0.000000000000000000e+00 1.464147900000000035e+01
1.285671400000000020e+01 0.000000000000000000e+00 0.000000000000000000e+00 0.000000000000000000e+00 1.529539699999999947e+01 0.000000000000000000e+00 0.000000000000000000e+00 0.000000000000000000e+00 1.393140400000000056e+01
1.324455400000000083e+01 0.000000000000000000e+00 0.000000000000000000e+00 0.000000000000000000e+00 1.531573700000000038e+01 0.000000000000000000e+00 0.000000000000000000e+00 0.000000000000000000e+00 1.448862899999999954e+01
1.348156099999999924e+01 0.000000000000000000e+00 0.000000000000000000e+00 0.000000000000000000e+00 1.556091600000000064e+01 0.000000000000000000e+00 0.000000000000000000e+00 0.000000000000000000e+00 1.439771600000000085e+01
1.342705600000000032e+01 0.000000000000000000e+00 0.000000000000000000e+00 0.000000000000000000e+00 1.507520899999999919e+01 0.000000000000000000e+00 0.000000000000000000e+00 0.000000000000000000e+00 1.438894999999999946e+01
1.332787700000000086e+01 0.000000000000000000e+00 0.000000000000000000e+00 0.000000000000000000e+00 1.546646100000000068e+01 0.000000000000000000e+00 0.000000000000000000e+00 0.000000000000000000e+00 1.445615699999999926e+01
1.320725200000000044e+01 0.000000000000000000e+00 0.000000000000000000e+00 0.000000000000000000e+00 1.536744599999999927e+01 0.000000000000000000e+00 0.000000000000000000e+00 0.000000000000000000e+00 1.449366299999999974e+01
1.328125299999999953e+01 0.000000000000000000e+00 0.000000000000000000e+00 0.000000000000000000e+00 1.480660499999999935e+01 0.000000000000000000e+00 0.000000000000000000e+00 0.000000000000000000e+00 1.406072699999999998e+01
1.323095099999999924e+01 0.000000000000000000e+00 0.000000000000000000e+00 0.000000000000000000e+00 1.578155899999999967e+01 0.000000000000000000e+00 0.000000000000000000e+00 0.000000000000000000e+00 1.440135399999999954e+01
1.317790300000000059e+01 0.000000000000000000e+00 0.000000000000000000e+00 0.000000000000000000e+00 1.552932500000000005e+01 0.000000000000000000e+00 0.000000000000000000e+00 0.000000000000000000e+00 1.438118500000000033e+01
1.325945399999999985e+01 0.000000000000000000e+00 0.000000000000000000e+00 0.000000000000000000e+00 1.516779499999999992e+01 0.000000000000000000e+00 0.000000000000000000e+00 0.000000000000000000e+00 1.417639600000000044e+01
1.300471100000000035e+01 0.000000000000000000e+00 0.000000000000000000e+00 0.000000000000000000e+00 1.517080100000000087e+01 0.000000000000000000e+00 0.000000000000000000e+00 0.000000000000000000e+00 1.423255499999999962e+01
1.308373100000000022e+01 0.000000000000000000e+00 0.000000000000000000e+00 0.000000000000000000e+00 1.531799299999999953e+01 0.000000000000000000e+00 0.000000000000000000e+00 0.000000000000000000e+00 1.431252600000000008e+01
1.326234600000000086e+01 0.000000000000000000e+00 0.000000000000000000e+00 0.000000000000000000e+00 1.527351099999999917e+01 0.000000000000000000e+00 0.000000000000000000e+00 0.000000000000000000e+00 1.450821700000000014e+01
1.345508899999999919e+01 0.000000000000000000e+00 0.000000000000000000e+00 0.000000000000000000e+00 1.529581899999999983e+01 0.000000000000000000e+00 0.000000000000000000e+00 0.000000000000000000e+00 1.426369299999999996e+01
1.332546800000000076e+01 0.000000000000000000e+00 0.000000000000000000e+00 0.000000000000000000e+00 1.534256700000000073e+01 0.000000000000000000e+00 0.000000000000000000e+00 0.000000000000000000e+00 1.414367799999999953e+01
1.318445600000000084e+01 0.000000000000000000e+00 0.000000000000000000e+00 0.000000000000000000e+00 1.561537599999999948e+01 0.000000000000000000e+00 0.000000000000000000e+00 0.000000000000000000e+00 1.412495999999999974e+01
1.312963399999999936e+01 0.000000000000000000e+00 0.000000000000000000e+00 0.000000000000000000e+00 1.486806999999999945e+01 0.000000000000000000e+00 0.000000000000000000e+00 0.000000000000000000e+00 1.416647599999999940e+01
1.327338199999999979e+01 0.000000000000000000e+00 0.000000000000000000e+00 0.000000000000000000e+00 1.485773599999999917e+01 0.000000000000000000e+00 0.000000000000000000e+00 0.000000000000000000e+00 1.439165700000000037e+01
1.342043199999999992e+01 0.000000000000000000e+00 0.000000000000000000e+00 0.000000000000000000e+00 1.562655200000000022e+01 0.000000000000000000e+00 0.000000000000000000e+00 0.000000000000000000e+00 1.400519199999999920e+01
1.370836500000000058e+01 0.000000000000000000e+00 0.000000000000000000e+00 0.000000000000000000e+00 1.502202899999999985e+01 0.000000000000000000e+00 0.000000000000000000e+00 0.000000000000000000e+00 1.440157199999999982e+01
1.347335700000000003e+01 0.000000000000000000e+00 0.000000000000000000e+00 0.000000000000000000e+00 1.526212699999999955e+01 0.000000000000000000e+00 0.000000000000000000e+00 0.000000000000000000e+00 1.451443000000000083e+01
1.342853299999999983e+01 0.000000000000000000e+00 0.000000000000000000e+00 0.000000000000000000e+00 1.508933799999999970e+01 0.000000000000000000e+00 0.000000000000000000e+00 0.000000000000000000e+00 1.441736099999999965e+01
1.344760499999999936e+01 0.000000000000000000e+00 0.000000000000000000e+00 0.000000000000000000e+00 1.510145299999999935e+01 0.000000000000000000e+00 0.000000000000000000e+00 0.000000000000000000e+00 1.413571899999999992e+01
1.355209499999999956e+01 0.000000000000000000e+00 0.000000000000000000e+00 0.000000000000000000e+00 1.545216399999999979e+01 0.000000000000000000e+00 0.000000000000000000e+00 0.000000000000000000e+00 1.454925500000000049e+01
1.313834899999999983e+01 0.000000000000000000e+00 0.000000000000000000e+00 0.000000000000000000e+00 1.539880899999999997e+01 0.000000000000000000e+00 0.000000000000000000e+00 0.000000000000000000e+00 1.467315900000000006e+01