-4.535092420000000129e+04
-4.535979800000000250e+04
-4.534051720000000205e+04
-4.534880090000000200e+04
-4.535821080000000075e+04
-4.535393000000000029e+04
-4.535679179999999906e+04
-4.535990810000000056e+04
-4.535829419999999664e+04
-4.536050770000000193e+04
-4.535853379999999743e+04
-4.535796220000000176e+04
-4.534933170000000246e+04
-4.536022839999999997e+04
-4.535553650000000198e+04
-4.535675390000000334e+04
-4.536054430000000139e+04
-4.535974480000000040e+04
-4.535691109999999753e+04
-4.536049659999999858e+04
-4.535315879999999743e+04
-4.535848659999999654e+04
-4.535924990000000253e+04
-4.535489749999999913e+04
-4.535459180000000197e+04
-4.535704469999999856e+04
-4.534088620000000083e+04
-4.534693110000000161e+04
-4.534944509999999718e+04
-4.535955550000000221e+04
-4.535713139999999839e+04
-4.535638509999999951e+04
-4.535051469999999972e+04
-4.535882250000000204e+04
-4.535652769999999873e+04
-4.535643239999999787e+04
-4.535695459999999730e+04
-4.535896009999999660e+04
-4.535009539999999834e+04
-4.534977670000000217e+04
-4.535841399999999703e+04
-4.534781590000000142e+04
-4.535803549999999814e+04
-4.534731769999999960e+04
-4.535017369999999937e+04
-4.536002919999999722e+04
-4.535503270000000339e+04
-4.535648999999999796e+04
-4.535571020000000135e+04
-4.535754899999999907e+04
-4.535297129999999743e+04
-4.535598120000000199e+04
-4.534379269999999815e+04
-4.536039319999999861e+04
-4.535166829999999754e+04
-4.535073879999999917e+04
-4.535981070000000182e+04
-4.535587759999999980e+04
-4.535997400000000198e+04
-4.535775779999999941e+04
-4.535851679999999760e+04
-4.536065129999999772e+04
-4.535852189999999973e+04
-4.535522310000000289e+04
-4.534802300000000105e+04
-4.535838019999999960e+04
-4.534988730000000214e+04
-4.536073369999999704e+04
-4.535227440000000206e+04
-4.534986540000000241e+04
-4.535788270000000193e+04
-4.535784750000000349e+04
-4.534377909999999974e+04
-4.535804250000000320e+04
-4.534974829999999929e+04
-4.535356650000000081e+04
-4.535847770000000310e+04
-4.535404849999999715e+04
-4.535466939999999886e+04
-4.536074079999999958e+04
-4.535784769999999844e+04
-4.535648780000000261e+04
-4.536012660000000324e+04
-4.535525160000000324e+04
-4.535691769999999815e+04
-4.535878940000000148e+04
-4.535590209999999934e+04
-4.534673410000000149e+04
-4.535267050000000017e+04
-4.535867549999999756e+04
-4.535267829999999958e+04
-4.535394709999999759e+04
-4.535968609999999899e+04
-4.535961619999999675e+04
-4.535471259999999893e+04
-4.535583800000000338e+04
-4.534924119999999675e+04
-4.535974210000000312e+04
-4.535819180000000051e+04
-4.535673060000000260e+04
-4.535586980000000040e+04
-4.536126989999999932e+04
-4.535592919999999867e+04
-4.535922110000000248e+04
-4.535834560000000056e+04
-4.535814639999999781e+04
-4.534819339999999647e+04
-4.536053409999999712e+04
-4.533943160000000353e+04
-4.535969109999999637e+04
-4.535984389999999985e+04
-4.535867240000000311e+04
-4.536009229999999661e+04
-4.535779950000000099e+04
-4.534505139999999665e+04
-4.535976219999999739e+04
-4.535782800000000134e+04
-4.535499829999999929e+04
-4.535428590000000258e+04
-4.535758099999999831e+04
-4.535511559999999736e+04
-4.536029920000000129e+04
-4.534916659999999683e+04
-4.535808879999999772e+04
-4.534471590000000288e+04
-4.535250200000000041e+04
-4.533982880000000296e+04
-4.535820700000000215e+04
-4.536103510000000097e+04
-4.535612069999999949e+04
-4.535277909999999974e+04
-4.535925450000000274e+04
-4.535893519999999990e+04
-4.535188969999999972e+04
-4.535608469999999943e+04
-4.536142869999999675e+04
-4.535094739999999729e+04
-4.535902679999999964e+04
-4.535972830000000249e+04
-4.534912829999999667e+04
-4.535479490000000078e+04
-4.535631949999999779e+04
-4.535211190000000352e+04
-4.535071379999999772e+04
-4.536120580000000336e+04
-4.535475789999999688e+04
-4.535312670000000071e+04
-4.534992429999999877e+04
-4.535986460000000079e+04
-4.534968929999999818e+04
-4.535927829999999813e+04
-4.535723780000000261e+04
-4.533506480000000010e+04
-4.535915329999999813e+04
-4.534946140000000014e+04
-4.535157100000000355e+04
-4.535815320000000065e+04
-4.535447179999999935e+04
-4.535831240000000253e+04
-4.533988590000000113e+04
-4.535418849999999657e+04
-4.534668160000000353e+04
-4.533996689999999944e+04
-4.535877240000000165e+04
-4.535740389999999752e+04
-4.535311980000000040e+04
-4.536127930000000197e+04
-4.536074020000000019e+04
-4.535780500000000029e+04
-4.535172879999999714e+04
-4.535312500000000000e+04
-4.535915490000000136e+04
-4.535396959999999672e+04
-4.536105859999999666e+04
-4.535941820000000007e+04
-4.533838769999999931e+04
-4.536195210000000225e+04
-4.535350510000000213e+04
-4.536178710000000137e+04
-4.535869759999999951e+04
-4.535828450000000157e+04
-4.535825559999999678e+04
-4.535955419999999867e+04
-4.535691700000000128e+04
-4.534615019999999640e+04
-4.534066449999999895e+04
-4.535802960000000166e+04
-4.535947740000000340e+04
-4.535519720000000234e+04
-4.536031420000000071e+04
-4.535695049999999901e+04
-4.535969569999999658e+04
-4.535111359999999695e+04
-4.535178730000000360e+04
-4.535942169999999896e+04
-4.534643519999999990e+04
-4.535576769999999669e+04
-4.535517149999999674e+04
-4.535947170000000187e+04
-4.535291339999999764e+04
-4.535946970000000147e+04
-4.534906119999999646e+04
-4.536089499999999680e+04
-4.535381270000000222e+04
-4.533587720000000263e+04
-4.535902810000000318e+04
-4.535173350000000210e+04
-4.534857119999999850e+04
-4.535472580000000016e+04
-4.535972269999999844e+04
-4.535636570000000211e+04
-4.535666240000000107e+04
-4.536025839999999880e+04
-4.535471970000000147e+04
-4.535981440000000293e+04
-4.536053139999999985e+04
-4.534875910000000295e+04
-4.535977019999999902e+04
-4.535851309999999648e+04
-4.535763489999999729e+04
-4.536128590000000258e+04
-4.535352949999999691e+04
-4.535704200000000128e+04
-4.534786269999999786e+04
-4.536191159999999945e+04
-4.535734750000000349e+04
-4.534164110000000073e+04
-4.535209509999999864e+04
-4.535539020000000164e+04
-4.535475800000000163e+04
-4.535491199999999662e+04
-4.535740630000000237e+04
-4.535798539999999775e+04
-4.535990299999999843e+04
-4.536138309999999910e+04
-4.536117160000000149e+04
-4.535427219999999943e+04
-4.535375970000000234e+04
-4.535724990000000253e+04
-4.536027390000000014e+04
-4.536085669999999664e+04
-4.536103340000000026e+04
-4.535517639999999665e+04
-4.535719580000000133e+04
-4.535822209999999905e+04
-4.535616790000000037e+04
-4.535844660000000295e+04
-4.536041810000000260e+04
-4.535864529999999650e+04
-4.535806319999999687e+04
-4.535552780000000348e+04
-4.535952979999999661e+04
-4.536069589999999880e+04
-4.535773909999999887e+04
-4.536088070000000153e+04
-4.535974829999999929e+04
-4.535427090000000317e+04
-4.535017010000000300e+04
-4.535375819999999658e+04
-4.535633909999999742e+04
-4.535794810000000143e+04
-4.535863700000000244e+04
-4.535507370000000083e+04
-4.535981459999999788e+04
-4.535620160000000033e+04
-4.535676980000000185e+04
-4.535537849999999889e+04
-4.534994829999999638e+04
-4.535170549999999639e+04
-4.535509419999999955e+04
-4.535172170000000187e+04
-4.536160820000000240e+04
-4.535724960000000283e+04
-4.535799440000000322e+04
-4.535400069999999687e+04
-4.536122649999999703e+04
-4.535310369999999966e+04
-4.535508340000000317e+04
-4.535992300000000250e+04
-4.535946590000000288e+04
-4.536073730000000069e+04
-4.535799109999999928e+04
-4.535850890000000072e+04
-4.534926009999999951e+04
-4.536114790000000357e+04
-4.535584360000000015e+04
-4.535434550000000309e+04
-4.534949620000000141e+04
-4.535062320000000182e+04
-4.535484240000000136e+04
-4.535573559999999998e+04
-4.535729400000000169e+04
-4.535542639999999665e+04
-4.536038579999999638e+04
-4.535780159999999887e+04
-4.534818359999999666e+04
-4.534947830000000249e+04
-4.535461980000000040e+04
-4.535679269999999815e+04
-4.535360779999999795e+04
-4.535174199999999837e+04
-4.535002629999999772e+04
-4.535295969999999943e+04
-4.535674040000000241e+04
-4.533637419999999838e+04
-4.535782340000000113e+04
-4.535397699999999895e+04
-4.535348120000000199e+04
-4.535560270000000310e+04
-4.535390849999999773e+04
-4.535578179999999702e+04
-4.535779000000000087e+04
-4.536163330000000133e+04
-4.536002479999999923e+04
-4.533432039999999688e+04
-4.535699769999999990e+04
-4.535996040000000357e+04
-4.535700140000000101e+04
-4.535637200000000303e+04
-4.535915090000000055e+04
-4.535923040000000037e+04
-4.535978489999999874e+04
-4.535695670000000246e+04
-4.535941459999999643e+04
-4.535609820000000036e+04
-4.535871409999999742e+04
-4.536079830000000220e+04
-4.535618050000000221e+04
-4.535983550000000105e+04
-4.536214989999999671e+04
-4.536055559999999969e+04
-4.535762290000000212e+04
-4.535215550000000076e+04
-4.535111190000000352e+04
-4.535668420000000333e+04
-4.535949010000000271e+04
-4.536095949999999721e+04
-4.535860760000000300e+04
-4.535197780000000057e+04
-4.535185770000000048e+04
-4.535888569999999891e+04
-4.535498090000000229e+04
-4.535405999999999767e+04
-4.535588229999999749e+04
-4.535477449999999953e+04
-4.535816550000000279e+04
-4.535020569999999861e+04
-4.535352709999999934e+04
-4.535652919999999722e+04
-4.535417300000000250e+04
-4.534648060000000260e+04
-4.534965980000000127e+04
-4.535603179999999702e+04
-4.534224700000000303e+04
-4.535702440000000206e+04
-4.535883619999999792e+04
-4.535890879999999743e+04
-4.534985880000000179e+04
-4.535923739999999816e+04
-4.535349919999999838e+04
-4.535977769999999873e+04
-4.535898040000000037e+04
-4.534974500000000262e+04
-4.535728809999999794e+04
-4.534454679999999644e+04
-4.535943809999999939e+04
-4.535817440000000352e+04
-4.536101129999999830e+04
-4.535518430000000080e+04
-4.535914179999999760e+04
-4.533764970000000176e+04
-4.535376499999999942e+04
-4.535827259999999660e+04
-4.535852629999999772e+04
-4.535449100000000180e+04
-4.535626049999999668e+04
-4.536148819999999978e+04
-4.535903790000000299e+04
-4.535794819999999891e+04
-4.535779269999999815e+04
-4.534448780000000261e+04
-4.535612189999999828e+04
-4.535904570000000240e+04
-4.535418890000000101e+04
-4.535525789999999688e+04
-4.535489059999999881e+04
-4.535480559999999969e+04
-4.534870659999999771e+04
-4.535858260000000155e+04
-4.535113500000000204e+04
-4.535566689999999653e+04
-4.535265209999999934e+04
-4.535975059999999939e+04
-4.535022400000000198e+04
-4.536149769999999990e+04
-4.536011370000000170e+04
-4.535111359999999695e+04
-4.535621979999999894e+04
-4.535805109999999695e+04
-4.536059380000000237e+04
-4.535530879999999888e+04
-4.535649569999999949e+04
-4.535860029999999824e+04
-4.536124960000000283e+04
-4.535845090000000346e+04
-4.536003420000000187e+04
-4.534601640000000043e+04
-4.535582160000000295e+04
-4.535779119999999966e+04
-4.535289609999999811e+04
-4.535613910000000033e+04
-4.534662329999999929e+04
-4.535882400000000052e+04
-4.535439269999999669e+04
-4.536006960000000254e+04
-4.535787859999999637e+04
-4.535595919999999751e+04
-4.535951729999999952e+04
-4.535782519999999931e+04
-4.535839459999999963e+04
-4.535732650000000285e+04
-4.535607430000000022e+04
-4.535725259999999980e+04
-4.535825920000000042e+04
-4.535541619999999966e+04
-4.536001509999999689e+04
-4.536067919999999867e+04
-4.535638350000000355e+04
-4.535881629999999859e+04
-4.535794410000000062e+04
-4.535859719999999652e+04
-4.536033140000000276e+04
-4.536033669999999984e+04
-4.535648840000000200e+04
-4.534553429999999935e+04
-4.535508810000000085e+04
-4.535637170000000333e+04
-4.535899809999999707e+04
-4.534457809999999881e+04
-4.536075940000000264e+04
-4.535208200000000215e+04
-4.535017540000000008e+04
-4.535549530000000232e+04
-4.535338300000000163e+04
-4.536007469999999739e+04
-4.535936009999999806e+04
-4.535742420000000129e+04
-4.536077840000000288e+04
-4.535781859999999870e+04
-4.535253839999999764e+04
-4.536006680000000051e+04
-4.535993269999999757e+04
-4.535081620000000112e+04
-4.535925839999999880e+04
-4.535556749999999738e+04
-4.535230649999999878e+04
-4.535744279999999708e+04
-4.534832239999999729e+04
-4.535930189999999857e+04
-4.535492089999999735e+04
-4.536108069999999861e+04
-4.535177279999999882e+04
-4.535360850000000210e+04
-4.535225789999999688e+04
-4.535410760000000300e+04
-4.535632529999999679e+04
-4.534616100000000006e+04
-4.535938450000000012e+04
-4.535532400000000052e+04
-4.534834429999999702e+04
-4.533998969999999827e+04
-4.535803940000000148e+04
-4.535221699999999691e+04
-4.535492360000000190e+04
-4.535544260000000213e+04
-4.535555559999999969e+04
-4.536096289999999863e+04
-4.535890299999999843e+04
-4.536196040000000357e+04
-4.535883980000000156e+04
-4.536019279999999708e+04
-4.535995470000000205e+04
-4.536004280000000290e+04
-4.534677889999999752e+04
-4.534950370000000112e+04
-4.535599900000000343e+04
-4.535589439999999740e+04
-4.535079759999999806e+04
-4.535637930000000051e+04
-4.535673270000000048e+04
-4.535473019999999815e+04
-4.535674689999999828e+04
-4.535501870000000054e+04
-4.535850220000000263e+04
-4.535595919999999751e+04
-4.535843490000000020e+04
-4.535959300000000076e+04
-4.535709270000000106e+04
-4.534316569999999774e+04
-4.535580129999999917e+04
-4.535363790000000154e+04
-4.536023980000000302e+04
-4.535037509999999747e+04
-4.535354989999999816e+04
-4.535789820000000327e+04
-4.535211630000000150e+04
-4.535706650000000081e+04
-4.535807499999999709e+04
-4.534094249999999738e+04
-4.535703220000000147e+04
-4.535480580000000191e+04
-4.535724609999999666e+04
-4.535858520000000135e+04
-4.535786409999999887e+04
-4.535964450000000215e+04
-4.535854220000000350e+04
-4.535774489999999787e+04
-4.535684750000000349e+04
-4.535562780000000203e+04
-4.535996579999999813e+04
-4.535528420000000187e+04
-4.535979649999999674e+04
-4.534778209999999672e+04
-4.535285970000000088e+04
-4.535665189999999711e+04
-4.535041019999999844e+04
-4.535519999999999709e+04
-4.536034709999999905e+04
-4.535350890000000072e+04
-4.534347200000000157e+04
-4.535677679999999964e+04
-4.535902429999999731e+04
-4.534882699999999750e+04
-4.535643499999999767e+04
-4.535548619999999937e+04
-4.535514050000000134e+04
-4.535547499999999854e+04
-4.535124599999999919e+04
-4.533943469999999797e+04
-4.535669400000000314e+04
-4.535499199999999837e+04
-4.534363169999999809e+04
-4.534662019999999757e+04
-4.536088680000000022e+04
-4.535729940000000352e+04
-4.535295960000000196e+04
-4.535653639999999723e+04
-4.535772350000000006e+04
-4.534617839999999705e+04
-4.535818409999999858e+04
-4.534854170000000158e+04
-4.535267470000000321e+04
-4.535611800000000221e+04
-4.534586450000000332e+04
-4.535638199999999779e+04
-4.535652509999999893e+04
-4.535955260000000271e+04
-4.535772119999999995e+04
-4.536079129999999714e+04
-4.535879690000000119e+04
-4.535068519999999990e+04
-4.535798279999999795e+04
-4.535413399999999820e+04
-4.534568740000000253e+04
-4.533035940000000119e+04
-4.535683759999999893e+04
-4.535623730000000069e+04
-4.535667569999999978e+04
-4.535623810000000231e+04
-4.535268819999999687e+04
-4.535839729999999690e+04
-4.534312810000000172e+04
-4.535978830000000016e+04
-4.536097260000000097e+04
-4.535454660000000149e+04
-4.535577629999999772e+04
-4.535892109999999957e+04
-4.536098950000000332e+04
-4.535867869999999675e+04
-4.535206509999999980e+04
-4.533796119999999792e+04
-4.535595229999999719e+04
-4.535215780000000086e+04
-4.535782170000000042e+04
-4.535856349999999657e+04
-4.535140969999999652e+04
-4.535698799999999756e+04
-4.535464070000000356e+04
-4.535545210000000225e+04
-4.534840810000000056e+04
-4.535865179999999964e+04
-4.535541569999999774e+04
-4.535812039999999979e+04
-4.535900910000000295e+04
-4.536018989999999758e+04
-4.535368660000000091e+04
-4.535129000000000087e+04
-4.535706990000000224e+04
-4.535637759999999980e+04
-4.535651999999999680e+04
-4.534687099999999919e+04
-4.535817919999999867e+04
-4.536107970000000205e+04
-4.535865690000000177e+04
-4.535647619999999733e+04
-4.534611420000000362e+04
-4.535798969999999827e+04
-4.536194739999999729e+04
-4.535688680000000022e+04
-4.535890690000000177e+04
-4.535789890000000014e+04
-4.535674300000000221e+04
-4.536048670000000129e+04
-4.535944649999999820e+04
-4.535419350000000122e+04
-4.536247589999999764e+04
-4.535479060000000027e+04
-4.535375089999999909e+04
-4.535781820000000153e+04
-4.535970939999999973e+04
-4.535910339999999997e+04
-4.534797269999999844e+04
-4.536065860000000248e+04
-4.535258509999999660e+04
-4.535285530000000290e+04
-4.535196800000000076e+04
-4.535729170000000158e+04
-4.535780670000000100e+04
-4.535760560000000260e+04
-4.530995919999999751e+04
-4.536148920000000362e+04
-4.535785850000000210e+04
-4.535468149999999878e+04
-4.535519140000000334e+04
-4.535961260000000038e+04
-4.535534520000000339e+04
-4.536156629999999859e+04
-4.535708230000000185e+04
-4.535738120000000345e+04
-4.535471340000000055e+04
-4.535778740000000107e+04
-4.534519210000000021e+04
-4.534665329999999813e+04
-4.534449829999999929e+04
-4.535470360000000073e+04
-4.535927790000000095e+04
-4.535571100000000297e+04
-4.536123010000000068e+04
-4.535335360000000219e+04
-4.535276690000000235e+04
-4.535530900000000111e+04
-4.535916019999999844e+04
-4.535670500000000175e+04
-4.535416139999999723e+04
-4.535549100000000180e+04
-4.534062829999999667e+04
-4.536083769999999640e+04
-4.535619170000000304e+04
-4.535913309999999910e+04
-4.534634820000000036e+04
-4.535356199999999808e+04
-4.535159260000000359e+04
-4.536008649999999761e+04
-4.535663689999999769e+04
-4.535772740000000340e+04
-4.535961779999999999e+04
-4.535654720000000088e+04
-4.535618680000000313e+04
-4.535914360000000306e+04
-4.535494419999999809e+04
-4.535939160000000265e+04
-4.534890069999999832e+04
-4.535761310000000231e+04
-4.535921719999999914e+04
-4.535814039999999659e+04
-4.535063160000000062e+04
-4.535746409999999742e+04
-4.535515310000000318e+04
-4.534598150000000169e+04
-4.535748290000000270e+04
-4.536056399999999849e+04
-4.535775430000000051e+04
-4.535610250000000087e+04
-4.536056100000000151e+04
-4.535839749999999913e+04
-4.534843310000000201e+04
-4.535378369999999995e+04
-4.536100340000000142e+04
-4.535125989999999729e+04
-4.535969999999999709e+04
-4.535981739999999991e+04
-4.534288390000000072e+04
-4.536004250000000320e+04
-4.536058520000000135e+04
-4.535175299999999697e+04
-4.535814360000000306e+04
-4.535979189999999653e+04
-4.536055369999999675e+04
-4.535953869999999733e+04
-4.535800710000000254e+04
-4.535961899999999878e+04
-4.535846630000000005e+04
-4.535722800000000279e+04
-4.535794490000000224e+04
-4.535689429999999993e+04
-4.535674119999999675e+04
-4.533353979999999865e+04
-4.535952290000000357e+04
-4.536089420000000246e+04
-4.535166950000000361e+04
-4.534912170000000333e+04
-4.535428620000000228e+04
-4.535284159999999974e+04
-4.535366709999999875e+04
-4.535973780000000261e+04
-4.535970610000000306e+04
-4.535626140000000305e+04
-4.535574719999999797e+04
-4.535756100000000151e+04
-4.535973530000000028e+04
-4.535014779999999882e+04
-4.535026079999999638e+04
-4.535713760000000184e+04
-4.536143910000000324e+04
-4.535663300000000163e+04
-4.535410779999999795e+04
-4.535118269999999757e+04
-4.535555099999999948e+04
-4.535991560000000027e+04
-4.533649289999999746e+04
-4.535325450000000274e+04
-4.535837380000000121e+04
-4.535815699999999924e+04
-4.535486729999999807e+04
-4.535247419999999693e+04
-4.535722589999999764e+04
-4.535188459999999759e+04
-4.535011299999999756e+04
-4.536222030000000086e+04
-4.535460700000000361e+04
-4.536085579999999754e+04
-4.535946869999999763e+04
-4.535784429999999702e+04
-4.535830249999999796e+04
-4.535951090000000113e+04
-4.535877410000000236e+04
-4.535718220000000292e+04
-4.534899790000000212e+04
-4.535705509999999776e+04
-4.534890080000000307e+04
-4.534171130000000267e+04
-4.534837230000000272e+04
-4.535497980000000098e+04
-4.535160629999999946e+04
-4.536111729999999807e+04
-4.535582059999999910e+04
-4.536159659999999712e+04
-4.535656210000000283e+04
-4.535544230000000243e+04
-4.535361970000000292e+04
-4.535994640000000072e+04
-4.535819449999999779e+04
-4.535731730000000243e+04
-4.535034339999999793e+04
-4.535831689999999799e+04
-4.535950099999999657e+04
-4.535559939999999915e+04
-4.534911310000000231e+04
-4.535077880000000005e+04
-4.536016560000000027e+04
-4.534506999999999971e+04
-4.536125379999999859e+04
-4.536017450000000099e+04
-4.535570719999999710e+04
-4.535411520000000019e+04
-4.534180129999999917e+04
-4.535032130000000325e+04
-4.535494969999999739e+04
-4.535496809999999823e+04
-4.535202799999999843e+04
-4.534140729999999894e+04
-4.535216199999999662e+04
-4.535610080000000016e+04
-4.534927419999999984e+04
-4.535704980000000069e+04
-4.535911250000000291e+04
-4.534405159999999887e+04
-4.535446169999999984e+04
-4.535689770000000135e+04
-4.535649960000000283e+04
-4.536074010000000271e+04
-4.535792970000000059e+04
-4.536065920000000187e+04
-4.535950809999999910e+04
-4.535843009999999776e+04
-4.535635949999999866e+04
-4.535683630000000267e+04
-4.535744769999999698e+04
-4.535331509999999980e+04
-4.535831680000000051e+04
-4.535559870000000228e+04
-4.534688160000000062e+04
-4.536019939999999769e+04
-4.535331599999999889e+04
-4.535842809999999736e+04
-4.535770289999999659e+04
-4.536003319999999803e+04
-4.534855960000000050e+04
-4.536020610000000306e+04
-4.535873139999999694e+04
-4.535538539999999921e+04
-4.535820650000000023e+04
-4.535712819999999920e+04
-4.536086110000000190e+04
-4.536161340000000200e+04
-4.535377539999999863e+04
-4.533647110000000248e+04
-4.535307609999999841e+04
-4.536163049999999930e+04
-4.535856970000000001e+04
-4.535793540000000212e+04
-4.536130369999999675e+04
-4.534265589999999793e+04
-4.535927259999999660e+04
-4.534817059999999765e+04
-4.536079770000000281e+04
-4.535632650000000285e+04
-4.534392089999999735e+04
-4.535909360000000015e+04
-4.535591079999999783e+04
-4.535621630000000005e+04
-4.535978979999999865e+04
-4.535718589999999676e+04
-4.535857789999999659e+04
-4.535738380000000325e+04
-4.535937109999999666e+04
-4.535351189999999769e+04
-4.535909139999999752e+04
-4.535914899999999761e+04
-4.535949339999999938e+04
-4.535554119999999966e+04
-4.535799889999999868e+04
-4.536090589999999793e+04
-4.536083290000000125e+04
-4.535423099999999977e+04
-4.535960470000000350e+04
-4.535575740000000224e+04
-4.535132510000000184e+04
-4.534086170000000129e+04
-4.536012030000000232e+04
-4.535675899999999820e+04
-4.535956799999999930e+04
-4.535065720000000147e+04
-4.535692330000000220e+04
-4.535657140000000072e+04
-4.535901009999999951e+04
-4.535049990000000253e+04
-4.534794109999999637e+04
-4.536141479999999865e+04
-4.534000789999999688e+04
-4.535854789999999775e+04
-4.535522000000000116e+04
-4.535767360000000190e+04
-4.536012389999999868e+04
-4.535182020000000193e+04
-4.535576559999999881e+04
-4.535541350000000239e+04
-4.535990939999999682e+04
-4.535141689999999653e+04
-4.535915299999999843e+04
-4.535833209999999963e+04
-4.534826490000000194e+04
-4.536040060000000085e+04
-4.536015039999999863e+04
-4.535285839999999735e+04
-4.535615929999999935e+04
-4.535808600000000297e+04
-4.535903699999999662e+04
-4.533538130000000092e+04
-4.535417579999999725e+04
-4.535818839999999909e+04
-4.535914229999999952e+04
-4.535425259999999980e+04
-4.535854379999999946e+04
-4.535143830000000162e+04
-4.536026690000000235e+04
-4.535569980000000214e+04
-4.535305859999999666e+04
-4.535807100000000355e+04
-4.534051630000000296e+04
-4.535324569999999949e+04
-4.535890550000000076e+04
-4.535499539999999979e+04
-4.535858739999999671e+04
-4.535366999999999825e+04
-4.536079200000000128e+04
-4.536165449999999691e+04
-4.535917910000000120e+04
-4.535959419999999955e+04
-4.535153669999999693e+04
-4.535727500000000146e+04
-4.535300130000000354e+04
-4.536052150000000256e+04
-4.536035740000000078e+04
-4.535546899999999732e+04
-4.535506130000000121e+04
-4.536001989999999932e+04
-4.535045709999999963e+04
-4.535711119999999937e+04
-4.536157860000000073e+04
-4.535527949999999691e+04
-4.535168129999999655e+04
-4.535831829999999900e+04
-4.535797890000000189e+04
-4.535267960000000312e+04
-4.535831730000000243e+04
-4.534859840000000258e+04
-4.535280419999999867e+04
-4.536194000000000233e+04
-4.535860680000000139e+04
-4.535773000000000320e+04
-4.536089330000000336e+04
-4.535208120000000054e+04
-4.535263459999999759e+04
-4.536084120000000257e+04
-4.535689330000000336e+04
-4.532876099999999860e+04
-4.535990409999999974e+04
-4.534962909999999829e+04
-4.535634440000000177e+04
-4.535001430000000255e+04
-4.536068329999999696e+04
-4.535862109999999666e+04
-4.534943299999999726e+04
-4.535952859999999782e+04
-4.535798599999999715e+04
-4.536002810000000318e+04
-4.535195320000000356e+04
-4.535569129999999859e+04
-4.535759459999999672e+04
-4.536106270000000222e+04
-4.535330189999999857e+04
-4.534802689999999711e+04
-4.535963470000000234e+04
-4.535659879999999976e+04
-4.534840129999999772e+04
-4.535980640000000130e+04
-4.535885790000000270e+04
-4.536067179999999644e+04
-4.535922000000000116e+04
-4.535645599999999831e+04
-4.534506330000000162e+04
-4.535171319999999832e+04
-4.535836510000000271e+04
-4.535848369999999704e+04
-4.535403080000000045e+04
-4.535942639999999665e+04
-4.535720390000000043e+04
-4.535860669999999664e+04
-4.536069239999999991e+04
-4.535492730000000302e+04
-4.535983099999999831e+04
-4.535291760000000068e+04
-4.535737840000000142e+04
-4.535200140000000101e+04
-4.535791790000000037e+04
-4.534484820000000036e+04
-4.534749689999999828e+04
-4.535733140000000276e+04
-4.535400690000000031e+04
-4.535395479999999952e+04
-4.535932549999999901e+04
-4.535406960000000254e+04
-4.535151389999999810e+04
-4.536003110000000015e+04
-4.535584930000000168e+04
-4.535821609999999782e+04
-4.535096450000000186e+04
-4.536104189999999653e+04
-4.535285650000000169e+04
-4.536192130000000179e+04
-4.535559410000000207e+04
-4.535741169999999693e+04
-4.535622480000000360e+04
-4.535915030000000115e+04
-4.534732499999999709e+04
-4.535987479999999778e+04
-4.535932499999999709e+04
-4.534504989999999816e+04
-4.535406919999999809e+04
-4.535950160000000324e+04
-4.536018849999999657e+04
-4.535622340000000258e+04
-4.536058329999999842e+04
-4.535987950000000274e+04
-4.535726019999999698e+04
-4.535844920000000275e+04
-4.535537950000000274e+04
-4.536033140000000276e+04
-4.534943340000000171e+04
