3.178711712499145747e+00 6.854364878704355846e+00 4.972270522426785355e+00 6.854364878704355846e+00 -6.194061062055836686e+01 -1.282337429390940198e+00 4.969414537060658610e+00 -1.282337429390940198e+00 -7.662608737318245744e+01
-1.456818252230670518e+00 -1.838229330078464008e+00 8.009632634803665496e+00 -1.841097082543485142e+00 -1.026942157724021776e+01 -8.299275633770786698e+00 8.009632634803665496e+00 -8.299275633770786698e+00 -4.406588437751275933e+01
4.842084767006581136e-02 -7.237492584096306913e+00 -1.527250501217016954e+01 -7.237492584096306913e+00 -2.237612819388453289e+01 -1.282582806225331495e+01 -1.527250501217016954e+01 -1.282582806225331495e+01 -1.764427206245627531e+02
2.228581603420935764e+01 -2.125269873461024805e-01 1.921007824511715256e+01 -2.125269873461024805e-01 -6.113102649913586539e+00 -3.760546970540757705e+00 1.921007824511715256e+01 -3.757595206827617496e+00 -1.385616922222325229e+02
1.202878387660869564e+01 6.292808289853529580e+00 -9.999038862088861501e-01 6.292808289853529580e+00 1.250179230182128265e+01 5.718013241493929977e-01 -9.999038862088861501e-01 5.718013241493929977e-01 -5.644367625922856035e+01
-2.921150535412995630e+00 1.941756041032545399e+00 3.574080198333295932e+00 1.941756041032545399e+00 -6.657043737165669484e+01 5.407960903752922377e+00 3.574080198333295932e+00 5.407960903752922377e+00 -2.531096032433651288e+01
8.556778163645306634e+00 -2.624884522450225521e+00 4.501446702973852076e+00 -2.624884522450225521e+00 -2.797286477378699843e+01 9.849073284895473179e+00 4.501446702973852076e+00 9.849073284895473179e+00 -5.315966790532419850e+01
1.927733171187157168e+01 2.866067844469038839e+00 3.515434400373455670e+00 2.866067844469038839e+00 -2.598351723466627305e+01 -4.521952562025301603e+00 3.515434400373455670e+00 -4.521952562025301603e+00 -2.839502849000222096e+00
3.206863935885224492e+01 -3.401949162176402197e+00 -2.312121200488032713e+00 -3.401949162176402197e+00 3.158995801656370972e+01 1.884619624356131062e+00 -2.312121200488032713e+00 1.884619624356131062e+00 -4.515259604807228300e+01
6.008544975303265367e+00 -4.054168294081680557e+00 -1.657730220679022759e+00 -4.054168294081680557e+00 -7.948380163360999617e+00 5.467601429608004437e-01 -1.657730220679022759e+00 5.467601429608004437e-01 -1.640280428882401509e+01
-1.282777727062027751e+01 -5.584431999939990732e+00 2.180203725608340637e+00 -5.584431999939990732e+00 -1.653729166769232961e+01 8.211044678612125836e+00 2.180203725608340637e+00 8.211044678612125836e+00 -5.249481282254059522e+01
-2.856741343211277950e+01 -6.088420974779412020e+00 4.787673528249087318e-01 -6.088420974779412020e+00 3.094682949283897866e+00 -2.653409425294674939e-01 4.787673528249087318e-01 -2.653409425294674939e-01 -1.267579828714140788e+01
-1.085516897374400713e+01 1.504621300731002753e+00 4.988268752610058421e+00 1.504621300731002753e+00 -9.193629145567363992e+01 1.273875272895016941e+01 4.988268752610058421e+00 1.273875272895016941e+01 -5.778756361352316873e+01
-4.764988662903066330e-01 5.171755987785035202e+00 6.482127870083378873e+00 5.168850506893021723e+00 -1.769728411325766970e+01 1.722950168964340500e+00 6.482127870083378873e+00 1.722950168964340500e+00 -3.598147536670217761e+01
-3.666288952438097937e+00 9.796092220743691570e+00 5.011077943688118985e+00 9.796092220743691570e+00 -4.385635132671406211e+01 -3.953215913933252779e+00 5.011077943688118985e+00 -3.953215913933252779e+00 -4.603293868108640652e+01
2.073178323187192529e+00 -6.065211302245677949e+00 3.645532669424670580e+00 -6.065211302245677949e+00 -1.754048626247141485e+01 -1.386001238535258029e+00 3.642620902116822990e+00 -1.386001238535258029e+00 -7.367644819045720794e+01
-2.330370932686502972e+00 5.064358575585458766e+00 1.540814156504476617e+00 5.064358575585458766e+00 -7.371160649281453203e+00 7.438921118879163963e+00 1.540814156504476617e+00 7.438921118879163963e+00 -7.450705548374418896e+00
-2.652933258191299615e+01 -2.007501506144542702e+00 -3.245746737142529703e+00 -2.007501506144542702e+00 -2.197098870613749355e+01 1.978904618592626008e+00 -3.245746737142529703e+00 1.976044929837434294e+00 -4.493428941032649959e+01
1.813177938187162752e+01 -1.024659806307236209e+01 4.932671522142419995e+00 -1.024659806307236209e+01 -1.764117214839311387e+01 7.831982944084729947e-01 4.932671522142419995e+00 7.831982944084729947e-01 -2.981177809697459224e+01
1.229791137171858395e+01 2.061052619250538953e+00 5.329590611395333077e+00 2.061052619250538953e+00 1.222355882412657246e+00 -7.128922263121993730e+00 5.329590611395333077e+00 -7.125948161218314425e+00 -1.961122795286876652e+01
-5.209744729873561297e+00 1.969782404745809901e+00 1.898101822331479394e+00 1.969782404745809901e+00 -3.344902697782331558e+01 -1.181295998188171215e+00 1.898101822331479394e+00 -1.178428774891598252e+00 -9.898228264430109391e+01
2.667489686335328969e+01 -5.399115062736285608e+00 -4.656004423033576201e-01 -5.399115062736285608e+00 2.469840756854234431e+00 4.178070194179135832e+00 -4.656004423033576201e-01 4.178070194179135832e+00 -8.861825636952646690e+00
1.633161047941933575e+01 1.471857482971395070e+00 -1.405774085776760884e+00 1.471857482971395070e+00 1.346299028301590184e+01 -2.646339678566936637e+00 -1.405774085776760884e+00 -2.646339678566936637e+00 -3.131752268869339417e+01
-4.685108300001236792e+00 -2.490206047940051182e+00 5.335344542849893124e+00 -2.490206047940051182e+00 -4.264868282789004184e+01 3.685618529334305560e+00 5.335344542849893124e+00 3.685618529334305560e+00 -7.070538289595805281e+01
2.293335586106163859e+01 2.694669313674742384e+00 1.018527667179399998e+01 2.694669313674742384e+00 -1.813741781661712338e+01 9.030008870293020351e-01 1.018527667179399998e+01 9.001342175466692241e-01 -7.045986921362924704e+01
2.757103929508003759e+01 -4.828276400594078588e+00 1.179096717978830888e+01 -4.828276400594078588e+00 7.151200311207349891e+00 -1.019167663399959167e+01 1.179096717978830888e+01 -1.019167663399959167e+01 -3.377969194622179572e+01
-4.350407243553788561e+01 2.820630173166072563e+00 -3.957178213530048172e+00 2.820630173166072563e+00 -4.629151872431377512e+01 9.335732808439862751e+00 -3.957178213530048172e+00 9.335732808439862751e+00 -1.543520729172653319e+02
9.711940462563082299e-01 1.058179252138394943e+01 -1.615841688553973698e+00 1.058179252138394943e+01 -6.239569865295963069e+01 -5.925691209766750234e+00 -1.613026633347433902e+00 -5.925691209766750234e+00 -1.291406576000235873e+02
1.482203664565634860e+01 5.418840007188172159e+00 -2.317021244452873496e+00 5.418840007188172159e+00 -3.293849803838836721e+01 -5.105495943112039470e+00 -2.317021244452873496e+00 -5.105495943112039470e+00 -9.801919773214595466e+01
-3.049132050254303117e+00 2.985907823010575779e+00 4.540649047504051183e-01 2.985907823010575779e+00 -2.305959997289399155e+01 -4.138313055953059538e-01 4.540649047504051183e-01 -4.109574770842274738e-01 -2.774681427446305193e+01
-1.375964239229160846e+01 1.217896784251799591e+00 -1.701600471614216570e+00 1.217896784251799591e+00 -2.878612777529430744e+01 1.154554634716244976e+00 -1.701600471614216570e+00 1.154554634716244976e+00 -3.837382586408507024e+01
-2.389723817334270972e+00 -8.474197933809471395e-02 3.005515533857759269e+00 -8.474197933809471395e-02 -6.511856165603657587e+01 7.640901803651539481e+00 3.005515533857759269e+00 7.640901803651539481e+00 -3.395046165548534844e+01
-1.022397952716763703e+00 -1.074492889272086771e+01 8.853353388920641720e+00 -1.074492889272086771e+01 -6.398762554755135312e+01 -6.440828519567187271e+00 8.853353388920641720e+00 -6.440828519567187271e+00 -7.708936279994082952e+01
-2.000083644464862687e+01 -4.203157429451675142e+00 -6.204387910868638834e+00 -4.203157429451675142e+00 -2.491216569202292419e+01 -2.141718008049386945e+00 -6.204387910868638834e+00 -2.141718008049386945e+00 -8.670087357886675505e+00
5.550221634933897974e+00 -9.458586276157355144e+00 2.934138850889164374e+00 -9.458586276157355144e+00 -2.817804830043363751e+01 5.452799055900468872e+00 2.934138850889164374e+00 5.452799055900468872e+00 -4.520980741145433512e+01
1.344297030198641352e+01 1.794331673137711247e+00 -5.054905247464005491e+00 1.794331673137711247e+00 -3.741965469805634825e+01 -2.270497359860340403e+00 -5.054905247464005491e+00 -2.270497359860340403e+00 -4.966640388461762257e+01
5.805041066074381639e+00 1.786390649349195225e+00 -1.136529124382032740e-01 1.786390649349195225e+00 -1.279032391516087408e+01 1.300014467658525064e+01 -1.136529124382032740e-01 1.300014467658525064e+01 -4.689785435558987814e+01
7.757830473921763392e+00 1.011463973182204690e+01 -2.386566950550538913e+00 1.011463973182204690e+01 -1.583109248993624263e+01 -6.314582380384344162e+00 -2.386566950550538913e+00 -6.314582380384344162e+00 -3.277214691572703487e+01
1.858738907996623624e+01 -4.828658021724160920e-01 1.263695135929274294e+01 -4.828658021724160920e-01 -7.095771848997090014e-01 -3.176903661853884397e+00 1.263695135929274294e+01 -3.176903661853884397e+00 -1.068311144269752759e+02
-2.176524690615062596e+01 -1.152509837469653853e+00 -5.072170433851777460e+00 -1.152509837469653853e+00 -9.093274438910937008e+00 2.426188190859100313e+00 -5.072170433851777460e+00 2.426188190859100313e+00 -1.084458217482142430e+02
-3.557132917003156813e-01 -9.413388329142499344e+00 4.589569056328462793e+00 -9.413388329142499344e+00 -1.900607929312580779e+01 -3.930198076591292278e+00 4.589569056328462793e+00 -3.930198076591292278e+00 -2.358986439349166275e+01
1.111190913569499727e+01 -3.136193930064098412e-01 1.274042818561818891e+01 -3.136193930064098412e-01 -5.412955633605126593e+01 -1.433729757202697286e+01 1.274042818561818891e+01 -1.433729757202697286e+01 -8.740486165824511033e+01
-5.772133412003463526e+00 -2.502403076434041029e+00 -4.100047145827856454e+00 -2.502403076434041029e+00 -4.014724935670265893e+01 -6.871587395242217955e-02 -4.100047145827856454e+00 -6.871587395242217955e-02 -4.999366146180182113e+01
-8.721829957904132513e+00 1.653919446069695809e+01 6.403615422188069672e+00 1.653641149006584499e+01 -6.105002673469782337e+01 -1.092037675648239237e+01 6.400832451556957459e+00 -1.092037675648239237e+01 -1.183820047062303757e+02
-4.014030998700932429e+01 3.137562691637224344e+00 3.118177926552087253e+00 3.137562691637224344e+00 -6.711836448121043475e+01 -8.770221574947123955e+00 3.118177926552087253e+00 -8.770221574947123955e+00 -7.804029498060779702e+01
-4.378143902248272212e+00 -3.493106081847512812e+00 1.625999716550231122e+00 -3.493106081847512812e+00 -8.621032855199418421e+00 -3.293163982886543883e-01 1.625999716550231122e+00 -3.293163982886543883e-01 -4.108810133647907747e+01
1.090607411680011829e+01 1.440534923448999693e+00 2.513645959540562469e+00 1.440534923448999693e+00 -5.019126943806515584e+01 -6.149976019339961297e+00 2.513645959540562469e+00 -6.149976019339961297e+00 -5.556848886891526007e+01
5.925939195008610660e+00 8.320668047786062838e-01 1.855479982781561343e+00 8.320668047786062838e-01 -3.713859153036218430e+01 -5.096771577703100853e+00 1.852580795308465200e+00 -5.096771577703100853e+00 -3.658484672300081542e+01
8.126480138618337179e+00 4.835446169751264622e-01 -7.513990290449844345e+00 4.835446169751264622e-01 -3.557716151562446072e+01 8.689150238371212254e+00 -7.513990290449844345e+00 8.689150238371212254e+00 -4.797348715080497072e+01
-2.844683550279664530e+01 5.670980941478548587e+00 -4.214452401797887937e+00 5.670980941478548587e+00 -1.305704578471124755e+01 6.983867613340603242e+00 -4.214452401797887937e+00 6.986740450696975913e+00 -4.897325841407538149e+01
9.002384469897219077e+00 -5.757719304169479635e+00 -9.986787925310492753e+00 -5.757719304169479635e+00 2.096690139173286838e+01 2.706365995244951694e+00 -9.986787925310492753e+00 2.706365995244951694e+00 -8.713903698975504142e+01
-2.464583612762097253e+00 -3.699754605606652813e+00 4.353329932822769699e+00 -3.699754605606652813e+00 -1.790566061655079722e+01 9.530107194208576882e-01 4.353329932822769699e+00 9.530107194208576882e-01 -6.565120974088941352e+01
6.538025791390809083e+00 6.219097704005892346e+00 -6.837020873314169300e+00 6.219097704005892346e+00 -1.904456293241364762e+01 1.651876638321345325e+01 -6.837020873314169300e+00 1.651876638321345325e+01 -1.675539963376422463e+02
1.396993590512681749e+01 -2.066292770533226797e-01 2.964680931634630090e-01 -2.066292770533226797e-01 -2.266333867738472918e+01 -6.135991140322582638e+00 2.964680931634630090e-01 -6.135991140322582638e+00 1.582361014419937817e+01
6.789340686105867384e+00 4.817144894148570611e-01 7.931287387483439311e+00 4.817144894148570611e-01 -3.439441454422078692e+01 -8.262820300786607675e+00 7.931287387483439311e+00 -8.262820300786607675e+00 -9.631739535117885964e+01
4.657136304924671677e+00 -8.730287183392670958e-01 2.474564509076503604e+00 -8.730287183392670958e-01 1.443446806605531485e+01 -3.607142305840957963e+00 2.474564509076503604e+00 -3.604192884495217797e+00 -1.049168161106905757e+02
-3.484052778879462853e+00 -7.915113192286566068e+00 3.524972861852880168e+00 -7.915113192286566068e+00 -2.265511165192510035e+01 2.855637218930566767e+00 3.524972861852880168e+00 2.855637218930566767e+00 -1.971471140397817123e+01
-1.247098857837059427e+00 3.346865306846434240e+00 -2.230276794596973922e+00 3.346865306846434240e+00 -8.367163267116085379e+00 1.795242309304976303e+00 -2.230276794596973922e+00 1.795242309304976303e+00 -7.050748914622501218e+01
7.113888428699481459e+00 -2.215418006965574005e+00 -2.203727146770504852e+00 -2.215418006965574005e+00 -1.061237834207387820e+01 2.016673383649401075e+00 -2.203727146770504852e+00 2.016673383649401075e+00 -9.034112215739563467e+00
1.378765268111307840e+01 -5.589270565731016660e+00 3.763481445207712994e+00 -5.589270565731016660e+00 -2.577012998983779113e+01 -4.549748695497586759e+00 3.763481445207712994e+00 -4.549748695497586759e+00 -3.570595659087912566e+01
1.409071094672728464e+01 4.548248765030395990e-01 3.056777579095103281e+00 4.518714682140588246e-01 -2.946910790745019071e+01 -2.303658465405005462e-01 3.056777579095103281e+00 -2.303658465405005462e-01 -2.049665352552658959e+01
-1.494503248624347913e+00 1.747509704100123518e+00 7.796129151288428982e-01 1.747509704100123518e+00 1.626596153866933037e+01 -5.883871057576173236e-01 7.825548506576310848e-01 -5.883871057576173236e-01 -2.151143258649848988e+01
4.700042453169552381e+00 1.881795055335855116e+00 3.179789125000586303e+00 1.881795055335855116e+00 1.401418711288702035e+01 -3.695430604730411517e+00 3.182752581780643020e+00 -3.698394061510467790e+00 -3.498657074534662570e+01
2.244245395876747651e+01 6.000955462589834255e+00 3.977069157828314050e-01 6.000955462589834255e+00 -6.224849726289797935e+00 3.523388676120491780e+00 3.977069157828314050e-01 3.523388676120491780e+00 -6.494995831306728462e+01
7.618376529864159252e+00 3.757712747838402922e+00 -1.576294723446368096e+01 3.757712747838402922e+00 -3.156307123127279368e+01 2.776818172108895588e+00 -1.576294723446368096e+01 2.776818172108895588e+00 -1.235212227681766564e+02
-1.443083555963098874e+01 -4.789147104653894260e+00 5.587338288762876637e+00 -4.786265548032561767e+00 -7.592901697209994971e+00 8.356514201862992597e-02 5.587338288762876637e+00 8.356514201862992597e-02 -4.372762172871410513e+01
5.171874050846769322e+00 -6.334477143268522958e+00 1.390564483092685100e+00 -6.334477143268522958e+00 -6.241867828308456723e+01 -9.970461324469887643e+00 1.390564483092685100e+00 -9.970461324469887643e+00 -8.744029042660274342e+01
-3.062186993312699457e+01 6.544492866440144496e+00 2.941410038868020660e+00 6.544492866440144496e+00 -1.025737292532561362e+01 7.367972101290228837e-01 2.941410038868020660e+00 7.367972101290228837e-01 -1.335770000951558067e+01
-1.575264339546563264e+01 -3.258778769713362777e+00 8.691016390161156124e+00 -3.258778769713362777e+00 -3.411005459648070115e+01 7.216672708015751114e-01 8.691016390161156124e+00 7.216672708015751114e-01 -8.781506700289011746e+01
1.729635556386854489e+01 1.354876201008551106e+00 -9.152143874362398401e-01 1.354876201008551106e+00 1.951261001187591049e+01 8.066448375540977267e+00 -9.152143874362398401e-01 8.066448375540977267e+00 -1.072445826480433055e+02
4.380499654477401528e+00 2.510077702924143672e+00 4.988743739486324102e+00 2.510077702924143672e+00 -6.100716728699818248e+01 -4.266275413161172203e+00 4.988743739486324102e+00 -4.266275413161172203e+00 -1.777900316087112387e+01
-6.953083031726237095e+00 -2.647156457072535218e+00 -5.661018570536070271e+00 -2.647156457072535218e+00 -2.091941174193036090e+01 4.039491996182115741e-01 -5.661018570536070271e+00 4.039491996182115741e-01 -3.789387278971690876e+01
6.875437743333660201e+00 3.792281804619014540e+00 -1.637436090360996488e+01 3.792281804619014540e+00 -2.920028960866289225e+01 -9.888521956168426996e+00 -1.637436090360996488e+01 -9.888521956168426996e+00 -1.506205762133160420e+02
-1.106173048864747210e+00 -9.419754869238861072e-01 -1.811934499312307212e+00 -9.419754869238861072e-01 -2.047572403992349521e+01 5.473252064695363628e-02 -1.811934499312307212e+00 5.473252064695363628e-02 -5.143416611322931686e+01
-3.650851059002370835e+00 5.791296094365086411e+00 7.130128994276587306e+00 5.791296094365086411e+00 -2.964558564089752934e+01 -8.328328186214191575e+00 7.130128994276587306e+00 -8.328328186214191575e+00 -1.249446115123292174e+02
4.595804737367821247e+00 -7.653849714703824247e+00 1.360101908967536577e+00 -7.653849714703824247e+00 -7.088257015086060164e+01 7.767434242433447267e+00 1.360101908967536577e+00 7.767434242433447267e+00 -7.805295751676655236e+00
6.038659592736293824e+00 3.920188542156525457e+00 -6.866868439670771096e+00 3.920188542156525457e+00 -5.030278996644140577e+00 -3.896940574523277245e+00 -6.866868439670771096e+00 -3.896940574523277245e+00 -5.175869393947359498e+01
7.240679162689138693e+00 -3.797080568780288434e+00 -3.460702560434887332e+00 -3.797080568780288434e+00 -4.538252451575239377e+01 1.986910778108003761e+00 -3.460702560434887332e+00 1.986910778108003761e+00 -6.323051358567235525e+01
8.983681588656684980e+00 -7.367539126164669661e+00 1.748424585756486849e+00 -7.367539126164669661e+00 -5.755422641337224832e+01 2.487479057038422869e+00 1.748424585756486849e+00 2.487479057038422869e+00 -4.685950431727294330e+01
-2.312631182676920805e+00 -1.121187016411722137e+00 2.675626456919880436e+00 -1.121187016411722137e+00 -8.334254401368598408e+00 7.201357859981297738e-01 2.675626456919880436e+00 7.201357859981297738e-01 -2.736515986792893074e+01
-1.733949187873597308e+00 3.887816877588082143e+00 4.210611372200465219e+00 3.887816877588082143e+00 -1.141778402624508715e+01 -9.189645036885275786e+00 4.210611372200465219e+00 -9.189645036885275786e+00 -5.643761796510487727e+01
4.122044706111235968e+00 -6.830980401244713285e+00 -3.612867775030181416e+00 -6.830980401244713285e+00 -5.239945518844248795e+01 -4.153510696234222088e+00 -3.612867775030181416e+00 -4.153510696234222088e+00 -3.142594249919364202e+01
1.905906583133345933e+01 1.470495098203326245e+00 -8.847126566192496933e-01 1.470495098203326245e+00 -8.499884397212245091e+00 -5.727986039613367275e+00 -8.847126566192496933e-01 -5.731005536734934402e+00 5.489445767009542010e+00
-7.241048340583066789e+00 -2.324951383503597313e+00 -1.407430983680009629e+00 -2.324951383503597313e+00 -3.354329980219257834e+01 7.886710844162629463e+00 -1.407430983680009629e+00 7.886710844162629463e+00 -7.745401375177452508e+01
-1.207222052749100527e+01 -6.442386916112988748e-01 5.870697626710169814e+00 -6.442386916112988748e-01 -4.663185376352235068e+01 -1.349418881077720789e+00 5.870697626710169814e+00 -1.349418881077720789e+00 -3.639368212386170853e+01
1.994963602042409967e+00 -1.165887819375434287e+00 7.412743542942576092e+00 -1.165887819375434287e+00 -2.148400196542930018e+01 4.318103034723830974e-02 7.412743542942576092e+00 4.318103034723830974e-02 -2.696799281952856475e+01
1.666406934853835287e+00 3.510214957013226833e+00 -1.102213312931245248e+00 3.510214957013226833e+00 -7.121635780227001078e+01 -5.278409400976807220e+00 -1.102213312931245248e+00 -5.278409400976807220e+00 -5.915308386549215314e+00
-2.020250200989150358e+01 -3.149703266652040590e+00 6.141227602732129753e+00 -3.149703266652040590e+00 -7.635879743189211410e+01 -7.628664563899965501e+00 6.141227602732129753e+00 -7.628664563899965501e+00 -1.071370872384452468e+02
1.808872206653619585e+01 6.438842661411069201e+00 8.394766041928399813e-01 6.438842661411069201e+00 -5.864629242692770106e+01 -8.403332129726285515e+00 8.394766041928399813e-01 -8.403332129726285515e+00 -7.185234444866880210e+01
-6.086789944260905472e+00 2.528096104070946648e+00 -1.517427053456998465e+00 2.528096104070946648e+00 -4.178760654904656491e+01 3.880399763343131081e+00 -1.517427053456998465e+00 3.880399763343131081e+00 -3.217913318053368243e+01
1.477805467434374442e+01 -1.066286776797781677e+01 1.192125472451485457e+01 -1.066286776797781677e+01 -6.644748123386338534e+01 -5.088765729552782169e+00 1.192125472451485457e+01 -5.088765729552782169e+00 -5.136427498807302072e+01
-1.858224442381956365e+01 3.456769606971879516e-01 5.339725409143553092e-02 3.456769606971879516e-01 -5.736270280317318537e+01 -3.546701824389034030e+00 5.339725409143553092e-02 -3.543891442594747421e+00 -6.420598247225980515e+01
1.317012976125020174e+01 9.470456212726959810e-01 -2.360238308467777976e-02 9.470456212726959810e-01 -2.029509915493730787e+01 -6.936150329009682203e+00 -2.360238308467777976e-02 -6.936150329009682203e+00 -3.251228269914364688e+01
1.209930361296237500e+01 1.092470420996218472e+01 -2.711806009565081332e+00 1.092470420996218472e+01 -5.776921602090641983e+00 -2.752095698850048233e+00 -2.711806009565081332e+00 -2.752095698850048233e+00 2.759533795333426909e+01
8.059644480140919498e+00 9.733391199243989433e+00 -8.931509060300882652e+00 9.733391199243989433e+00 -2.738354606114449297e+01 1.029325072897881554e+00 -8.931509060300882652e+00 1.029325072897881554e+00 -6.509533407187622345e+01
1.143882092046072074e+01 -5.230991881261725096e-01 1.130009848383057625e+00 -5.230991881261725096e-01 -2.976174275869239949e+01 7.875388329523867803e+00 1.130009848383057625e+00 7.875388329523867803e+00 -5.858710907013131219e+01
-1.595884001815392139e+01 -2.254440094502295988e+00 -1.281278156337287122e+01 -2.254440094502295988e+00 -4.853394751631287818e+01 2.271369557039234266e+00 -1.281278156337287122e+01 2.274191134128723757e+00 -8.359768600740177646e+01
-6.912352512119125159e+00 -5.269399235686315741e+00 3.151483102975659367e+00 -5.269399235686315741e+00 1.161418607049228946e+01 3.515920011566210146e+00 3.151483102975659367e+00 3.515920011566210146e+00 -1.953322086289842474e+01
7.081328442527387246e+00 -3.098081193605731976e+00 -3.162179425197574556e+00 -3.098081193605731976e+00 -2.250153158547926679e+01 -9.309505064529538521e-01 -3.162179425197574556e+00 -9.309505064529538521e-01 4.199960317636932672e+00
-1.451005644030822062e+01 -2.734521826206496531e+00 1.364412452867616476e+00 -2.734521826206496531e+00 -4.401440756098207174e+01 1.515380845356100403e+00 1.364412452867616476e+00 1.515380845356100403e+00 -3.400206983273640304e+01
-2.209625687373867819e+01 -1.259923415253725976e+00 7.103168232219339906e+00 -1.259923415253725976e+00 -5.456588319973302958e+01 2.811029130921645969e+00 7.105968062031013943e+00 2.811029130921645969e+00 -6.042592699556869462e+01
-1.389985860425391628e+01 8.339915162552349770e+00 -1.573184833661374293e+00 8.339915162552349770e+00 -1.804655282384932846e+01 -3.088211263120848926e+00 -1.573184833661374293e+00 -3.088211263120848926e+00 -9.093066496966944356e+00
-1.185499844147273407e+01 -3.691273953536042818e+00 2.420788964877125693e+00 -3.691273953536042818e+00 -3.636620207402292237e+01 -1.267623535981757366e+00 2.420788964877125693e+00 -1.267623535981757366e+00 -4.929424526943055440e+01
7.256884564495953427e+00 6.914799353357345524e+00 1.271855272182006447e+00 6.914799353357345524e+00 -3.211800037912492201e+01 -1.081807932660557164e-01 1.271855272182006447e+00 -1.081807932660557164e-01 -1.489971141848162084e+01
4.904755881289469599e+00 -6.019074301546647909e+00 5.507248255496762113e+00 -6.019074301546647909e+00 -2.267535620014147923e+01 -6.068794546020065184e+00 5.507248255496762113e+00 -6.068794546020065184e+00 -3.655022912848806982e+01
6.773080647419368994e+00 6.077811462055533909e+00 2.810046290845504280e-01 6.077811462055533909e+00 -2.634780517035037306e+01 -1.100842876826073902e-01 2.810046290845504280e-01 -1.100842876826073902e-01 -3.876994794885091267e+01
-6.068850423611688250e+00 4.717725294659802060e+00 8.664580443133361953e+00 4.717725294659802060e+00 -2.612268688112578374e+01 1.460168215085140275e+01 8.664580443133361953e+00 1.459887898668345230e+01 -1.419914777633378549e+02
2.510811439386401034e+01 -1.538758888571134076e+00 4.607295582706177228e+00 -1.538758888571134076e+00 -1.044499953740211318e+01 -1.969850872917910500e+00 4.604301888370436302e+00 -1.972844567253652093e+00 -4.167222515352175805e+00
-2.551380467680496267e+01 7.391414691079114085e+00 -1.505952800476719489e+01 7.391414691079114085e+00 -2.586995141877689974e+01 8.342052533111898427e+00 -1.505952800476719489e+01 8.344792123434759290e+00 -1.920863754874025346e+02
1.185600637651766220e+01 -3.547397049196037599e+00 -9.786936349480369612e-01 -3.547397049196037599e+00 7.141818417188378065e-01 -3.027190522511946091e-01 -9.786936349480369612e-01 -3.027190522511946091e-01 -1.943867778242137234e+01
1.404198446816408108e+01 2.902634345860546805e+00 -1.887769475715756151e+00 2.902634345860546805e+00 1.787189118049620973e+01 2.011607153322709785e+00 -1.887769475715756151e+00 2.011607153322709785e+00 -2.494876139105943480e+01
-4.794055708867699828e+00 -3.305743152834045961e+00 5.941600028001280398e-01 -3.305743152834045961e+00 -1.425692751816974102e+01 -4.412511785500951689e+00 5.941600028001280398e-01 -4.415424334534285400e+00 -5.159580612551112466e+01
1.154123489218339849e+01 -6.645224324701517471e-01 4.121231049803675717e+00 -6.675023536919909573e-01 -4.872171197707166002e+00 2.634250360105892863e+00 4.121231049803675717e+00 2.634250360105892863e+00 -7.530260927587773878e+00
1.394934671397263060e+01 3.000492123207946782e-01 2.765159407662225455e+00 3.000492123207946782e-01 -1.215493475793650724e+01 -6.742282300384916383e+00 2.765159407662225455e+00 -6.742282300384916383e+00 -4.728716752996837869e+01
-6.721826144915568513e+00 -6.544863218846216135e+00 -1.231551363613901273e+01 -6.544863218846216135e+00 -5.316076900952148065e+01 -7.861024981487026331e+00 -1.231551363613901273e+01 -7.861024981487026331e+00 -1.545854110587390835e+02
9.376060502302358657e+00 6.344928691423340483e-01 6.167511254080222827e+00 6.344928691423340483e-01 1.508348924937415703e+01 -3.719752033787048440e+00 6.167511254080222827e+00 -3.719752033787048440e+00 -1.810259275941635337e+01
-8.623055452613270777e-01 -2.840016556918705248e+00 1.094804310024619864e+00 -2.840016556918705248e+00 7.348726779923323349e+00 -3.222609460959566796e+00 1.094804310024619864e+00 -3.222609460959566796e+00 -4.282391805152754216e+01
-2.910983002755680449e+00 4.675819906483169586e-01 5.648048313867779946e+00 4.675819906483169586e-01 -1.524773467065365473e+01 -5.189019652316687825e+00 5.648048313867779946e+00 -5.189019652316687825e+00 -7.530636048167070840e+01
-8.044827090277005155e+00 6.691386721162339235e+00 1.154074671589476075e+00 6.691386721162339235e+00 -5.569603676636801737e+01 -1.367480206968551881e+00 1.154074671589476075e+00 -1.367480206968551881e+00 -5.302004367141724117e+01
-3.760559404836619102e+00 7.687489858857466940e-01 -2.303378491291994568e+00 7.687489858857466940e-01 -3.998928959788505466e+01 3.858087261254959710e+00 -2.303378491291994568e+00 3.858087261254959710e+00 -2.404061660712105208e+01
1.181994198656830797e+01 -4.134922519915865458e+00 5.460331230990530749e+00 -4.134922519915865458e+00 -1.938153093023818840e+01 3.235642995328619431e+00 5.460331230990530749e+00 3.235642995328619431e+00 -6.839226502024307308e+01
8.774395550213199613e+00 4.964035756243064590e+00 3.375896581714680766e-01 4.964035756243064590e+00 -1.036547028698655382e+01 5.181267362370792107e+00 3.346540959264987514e-01 5.181267362370792107e+00 -5.395563406253550021e+00
-2.110890570123720167e+00 2.527285422312508967e+00 5.523015053337405611e+00 2.527285422312508967e+00 -3.524898089014815383e+00 -7.720654551000456500e+00 5.523015053337405611e+00 -7.720654551000456500e+00 -1.321070501187291484e+02
-5.356628327765697861e+00 -1.881508430002392096e+00 4.649972147718430371e+00 -1.884416480126043458e+00 6.799021189096742468e+00 4.103258724471985808e+00 4.649972147718430371e+00 4.103258724471985808e+00 -3.081079106008553836e+01
-3.113919905912509023e+01 8.619971888747150146e+00 7.754379588080529295e+00 8.619971888747150146e+00 -9.623837719871697516e+01 -1.880520014227803072e-01 7.754379588080529295e+00 -1.908174720319388284e-01 -9.788936315238461816e+01
-6.272451387027713210e-01 4.688728367135648334e+00 1.779559737405600028e+00 4.688728367135648334e+00 -6.510577482670983329e+01 2.344364183567824167e+00 1.776721524108302530e+00 2.347202396865121887e+00 -5.814931403503338458e+01
3.788858922386016403e-01 7.765692240921417522e+00 6.755329861618479370e+00 7.765692240921417522e+00 2.658369155543863371e+01 -8.743746520886180207e+00 6.755329861618479370e+00 -8.743746520886180207e+00 -1.981808184403073199e+02
4.415896168891756624e+00 -7.340055754202214899e+00 1.731956590082461833e+00 -7.340055754202214899e+00 -5.602760941753059853e+01 -5.228492240266062296e+00 1.731956590082461833e+00 -5.228492240266062296e+00 -2.457954831952644525e+01
9.249376157557209766e+00 -3.071186855800699167e+00 4.133716030402301733e+00 -3.071186855800699167e+00 6.267728277144284377e-01 -1.928072603350099001e+00 4.133716030402301733e+00 -1.928072603350099001e+00 -6.094619591394585534e+00
1.254138265722314038e+01 -4.063606633169668747e+00 3.677987599684121367e+00 -4.063606633169668747e+00 -4.131089964029639816e+01 8.150584116853613059e-01 3.677987599684121367e+00 8.150584116853613059e-01 -5.721768477157522170e+01