-1.010433513070000004e+03
-1.010171526220000032e+03
-1.009245908340000028e+03
-1.010214117299999998e+03
-1.009260755000000017e+03
-1.008012076950000051e+03
-1.009477715210000042e+03
-1.008205891199999996e+03
-1.010493992469999966e+03
-1.008232420919999981e+03
-1.013572271580000006e+03
-1.011705077159999973e+03
-1.010259289459999991e+03
-1.012579566969999973e+03
-1.010080841530000043e+03
-1.009269719850000001e+03
-1.011672880269999951e+03
-1.009828936419999991e+03
-1.009344648119999988e+03
-1.007827586549999978e+03
-1.009644396629999960e+03
-1.007725102099999958e+03
-1.008015917309999963e+03
-1.007739763609999954e+03
-1.007193972590000044e+03
-1.010106694560000051e+03
-1.010371343290000027e+03
-1.010349710520000031e+03
-1.011199024669999972e+03
-1.011723453709999944e+03
-1.004802315769999950e+03
-1.006323266940000053e+03
-1.001895860439999979e+03
-1.012799328319999972e+03
-1.005983163549999972e+03
-1.007178928840000026e+03
-1.004841020230000026e+03
-1.010567420640000023e+03
-1.006608768810000015e+03
-1.003749121869999954e+03
-1.012337073199999963e+03
-1.008922989899999948e+03
-1.009103199539999991e+03
-1.011701750879999963e+03
-1.009131220880000001e+03
-1.012014263509999978e+03
-1.006879792139999950e+03
-1.010519085740000037e+03
-1.009724394839999945e+03
-1.008500155840000048e+03
-1.008648886670000024e+03
-1.010420239740000056e+03
-1.003759868360000041e+03
-1.010192234200000030e+03
-1.010481254870000043e+03
-1.009160201890000053e+03
-1.010368066740000017e+03
-1.009507254989999979e+03
-1.008862023320000048e+03
-1.008225331360000041e+03
-1.009300186339999982e+03
-1.008526259679999953e+03
-1.008673533610000050e+03
-1.011609215619999986e+03
-1.009426776900000050e+03
-1.005746541699999966e+03
-1.009194001429999958e+03
-1.007138947560000020e+03
-1.012022714210000004e+03
-1.013133131570000046e+03
-1.011276048309999965e+03
-1.003524992470000029e+03
-1.010570075960000054e+03
-1.009774226239999962e+03
-1.007564503380000019e+03
-1.005483233179999957e+03
-1.009194920740000043e+03
-1.009439516320000052e+03
-1.010039137869999990e+03
-1.010850631799999974e+03
-1.007646489960000054e+03
-1.008998090479999973e+03
-1.013491920059999984e+03
-1.007712909960000047e+03
-1.008667926760000000e+03
-1.010619078830000035e+03
-1.010521700099999975e+03
-1.005497445849999963e+03
-1.009445867509999971e+03
-1.007984276099999988e+03
-1.006374255840000046e+03
-1.010160701610000046e+03
-1.007282905130000017e+03
-1.009688159219999989e+03
-1.009943460670000036e+03
-1.009792263759999969e+03
-1.008383624639999994e+03
-1.008289902910000023e+03
-1.007008946700000024e+03
-1.006753094680000004e+03
-1.009634561080000026e+03
-1.011965877470000009e+03
-1.005622764009999969e+03
-1.009013526060000004e+03
-1.012169957700000055e+03
-1.008501818500000013e+03
-1.004888865229999965e+03
-1.008509272160000023e+03
-1.008712615430000028e+03
-1.006268399879999947e+03
-1.007078372790000003e+03
-1.010114357179999956e+03
-1.008533324460000017e+03
-1.008037852150000049e+03
-1.010207947809999951e+03
-1.008592682739999987e+03
-1.008708276039999987e+03
-1.008514305410000020e+03
-1.010482149219999997e+03
-1.010417930159999969e+03
-1.007210074500000019e+03
-1.008796267380000018e+03
-1.006915146940000000e+03
-1.007827242080000019e+03
-1.009939576289999991e+03
-1.005630976440000040e+03
-1.009705985570000053e+03
-1.011141632950000030e+03
-1.011361226490000035e+03
-1.010535611639999956e+03
-1.010213763999999969e+03
-1.008661576289999971e+03
-1.010615403170000036e+03
-1.011599719950000008e+03
-1.006468023689999995e+03
-1.009993726730000049e+03
-1.012029287869999962e+03
-1.011868524439999987e+03
-1.009534546829999954e+03
-1.011236787599999957e+03
-1.010359018859999992e+03
-1.008501130279999984e+03
-1.009535215289999996e+03
-1.012194806210000024e+03
-1.009083800010000004e+03
-1.011063636409999958e+03
-1.009491581989999986e+03
-1.007840703989999952e+03
-1.008093685230000006e+03
-1.009554245649999984e+03
-1.008819892660000050e+03
-1.011928294009999945e+03
-1.009790205870000023e+03
-1.008992414830000030e+03
-1.007411163160000001e+03
-1.008777666889999978e+03
-1.009643277000000012e+03
-1.008514471149999963e+03
-1.009325613360000034e+03
-1.011083194960000014e+03
-1.007375521319999962e+03
-1.010862143179999975e+03
-1.007707515739999963e+03
-1.008908170949999999e+03
-1.007985922070000015e+03
-1.010637102529999993e+03
-1.008605602660000045e+03
-1.007266316559999950e+03
-1.009897304670000040e+03
-1.014283622820000005e+03
-1.011943145380000033e+03
-1.007368878689999974e+03
-1.006635524830000008e+03
-1.010323248619999958e+03
-1.004995015670000043e+03
-1.010172762039999952e+03
-1.009973344170000018e+03
-1.008891270810000037e+03
-1.007623224449999952e+03
-1.004434405449999986e+03
-1.008077083030000040e+03
-1.007572839670000008e+03
-1.006486844760000054e+03
-1.008906290420000005e+03
-1.010870034730000043e+03
-1.009599366039999950e+03
-1.006523780249999959e+03
-1.009873677219999990e+03
-1.009133714499999996e+03
-1.006022143170000049e+03
-1.008847235400000045e+03
-1.007374048369999969e+03
-1.011001073610000049e+03
-1.012468781160000049e+03
-1.010921240089999969e+03
-1.008971951129999979e+03
-1.009066529149999951e+03
-1.008775595579999958e+03
-1.010891698929999961e+03
-1.008860209950000012e+03
-1.006793502529999955e+03
-1.013645720379999943e+03
-1.006571582899999953e+03
-1.008234648350000043e+03
-1.009040312770000014e+03
-1.010364453089999984e+03
-1.010628709609999987e+03
-1.009563362200000029e+03
-1.009048949930000049e+03
-1.010848263159999988e+03
-1.010615586620000045e+03
-1.009108044139999947e+03
-1.009330435879999982e+03
-1.007132278860000042e+03
-1.005334708449999994e+03
-1.009655187530000035e+03
-1.007174872130000040e+03
-1.011845364760000052e+03
-1.008232858630000010e+03
-1.008824991579999960e+03
-1.010014576120000015e+03
-1.009373079329999996e+03
-1.009647938579999959e+03
-1.011841052419999983e+03
-1.008639285670000049e+03
-1.010702699739999957e+03
-1.008235617039999966e+03
-1.007215854199999967e+03
-1.011824344529999962e+03
-1.007520713150000006e+03
-1.007129020040000000e+03
-1.006955271169999946e+03
-1.010816864099999975e+03
-1.011091094519999956e+03
-1.012575113009999995e+03
-1.009736723760000018e+03
-1.012517155809999963e+03
-1.007361105749999979e+03
-1.012190466730000026e+03
-1.009332340919999979e+03
-1.006478609460000030e+03
-1.010597069310000052e+03
-1.008950935360000017e+03
-1.008912437120000050e+03
-1.008695138469999961e+03
-1.008916632499999992e+03
-1.009339969129999986e+03
-1.005983524310000007e+03
-1.009892989360000001e+03
-1.008856847219999963e+03
-1.008425755529999947e+03
-1.010570621830000050e+03
-1.006789851849999991e+03
-1.009441424190000021e+03
-1.008195883600000002e+03
-1.008942539799999963e+03
-1.010535451579999972e+03
-1.007713775990000045e+03
-1.009568984099999966e+03
-1.009482091869999977e+03
-1.013741265949999956e+03
-1.008750856310000017e+03
-1.007495380899999986e+03
-1.013702042939999956e+03
-1.008759710039999959e+03
-1.011029147849999958e+03
-1.011108726159999947e+03
-1.008932618260000027e+03
-1.006931459379999978e+03
-1.005716435909999973e+03
-1.010731575659999976e+03
-1.011716578099999992e+03
-1.012566056649999950e+03
-1.010306113910000022e+03
-1.009067219260000002e+03
-1.009352963390000014e+03
-1.009193993719999980e+03
-1.008633453740000050e+03
-1.009528134740000041e+03
-1.010111884369999984e+03
-1.008833142080000016e+03
-1.011991963530000021e+03
-1.013975591170000030e+03
-1.009901966229999971e+03
-1.006293618939999988e+03
-1.009763417300000015e+03
-1.009809594039999979e+03
-1.011018690999999990e+03
-1.012804183650000027e+03
-1.011847133600000006e+03
-1.011720654780000018e+03
-1.004969758149999961e+03
-1.009112345740000023e+03
-1.010270706909999944e+03
-1.010545231179999973e+03
-1.007321889919999990e+03
-1.010431372219999957e+03
-1.010258243920000041e+03
-1.010221585799999957e+03
-1.008273136509999972e+03
-1.007640551980000055e+03
-1.009715865170000029e+03
-1.005752349790000039e+03
-1.008378004450000049e+03
-1.007223248979999994e+03
-1.010714290069999947e+03
-1.009145168069999954e+03
-1.010464565579999999e+03
-1.012130152970000040e+03
-1.008843412779999994e+03
-1.007018763020000051e+03
-1.007447997719999989e+03
-1.009065048230000002e+03
-1.007232162079999966e+03
-1.007547213550000038e+03
-1.007269572509999989e+03
-1.008837739199999987e+03
-1.008859179810000001e+03
-1.011528290019999986e+03
-1.010215322669999978e+03
-1.010788027029999967e+03
-1.009571187570000006e+03
-1.008917660540000043e+03
-1.010008636529999990e+03
-1.011709544570000048e+03
-1.008682631489999949e+03
-1.009165528310000013e+03
-1.007660914449999950e+03
-1.009090516170000001e+03
-1.011184978890000025e+03
-1.007671653989999982e+03
-1.009246493269999974e+03
-1.009383379310000009e+03
-1.006574134220000019e+03
-1.008947495089999961e+03
-1.011457284159999972e+03
-1.008017923539999970e+03
-1.009427221619999955e+03
-1.008387734779999960e+03
-1.005636040080000043e+03
-1.007006753379999964e+03
-1.008259328510000046e+03
-1.011419476339999960e+03
-1.009072930029999952e+03
-1.012542131280000035e+03
-1.010314612570000008e+03
-1.009154193480000004e+03
-1.012162645429999998e+03
-1.009084878440000011e+03
-1.004905439229999956e+03
-1.005199899559999949e+03
-1.012015984129999993e+03
-1.008613989779999997e+03
-1.011215744920000020e+03
-1.009367194089999998e+03
-1.011301779679999981e+03
-1.006545803679999949e+03
-1.011359096130000012e+03
-1.010545508580000046e+03
-1.008416700429999992e+03
-1.010285083640000039e+03
-1.011558218669999974e+03
-1.010567713919999960e+03
-1.008776880259999984e+03
-1.010742374089999998e+03
-1.007455587789999981e+03
-1.008205950680000001e+03
-1.009444015209999975e+03
-1.013625522619999970e+03
-1.010221768590000011e+03
-1.013332534649999957e+03
-1.006737828909999962e+03
-1.008866457100000048e+03
-1.008661235759999954e+03
-1.005338280929999996e+03
-1.009314472990000013e+03
-1.010309631070000023e+03
-1.012277506669999980e+03
-1.009887710050000010e+03
-1.007012526900000012e+03
-1.012901881890000027e+03
-1.012133181880000052e+03
-1.008956635000000006e+03
-1.007469525620000013e+03
-1.009713400969999952e+03
-1.006854845630000000e+03
-1.011173091450000015e+03
-1.011009970390000035e+03
-1.009809709569999995e+03
-1.012361410389999946e+03
-1.010174694159999945e+03
-1.005699873590000038e+03
-1.010858225899999979e+03
-1.009169708160000027e+03
-1.010440076480000016e+03
-1.005932570970000029e+03
-1.011977768330000004e+03
-1.006740788439999960e+03
-1.010181277740000041e+03
-1.009296367840000016e+03
-1.010470111159999988e+03
-1.007236730910000006e+03
-1.010909907650000036e+03
-1.009654111250000028e+03
-1.010468998779999993e+03
-1.009652338719999989e+03
-1.010863940749999983e+03
-1.010468301139999994e+03
-1.008585526540000046e+03
-1.008151369300000056e+03
-1.005189322749999974e+03
-1.007495191340000019e+03
-1.011041771840000024e+03
-1.011353952759999970e+03
-1.009242723469999987e+03
-1.006936407799999984e+03
-1.012814901719999966e+03
-1.012319735609999952e+03
-1.008574135439999964e+03
-1.006583121979999987e+03
-1.008481961960000035e+03
-1.007029862480000020e+03
-1.010488505179999947e+03
-1.009774297779999984e+03
-1.011553582440000014e+03
-1.006654053650000037e+03
-1.012686163620000002e+03
-1.008468964649999975e+03
-1.010082472039999971e+03
-1.007661795529999949e+03
-1.014244101389999969e+03
-1.010149299649999989e+03
-1.007835159040000008e+03
-1.009531341099999963e+03
-1.008722574819999977e+03
-1.008640271399999961e+03
-1.007042396329999974e+03
-1.011911448319999977e+03
-1.011816013969999972e+03
-1.008746823919999997e+03
-1.010235969200000000e+03
-1.011237158330000057e+03
-1.007810077220000039e+03
-1.011346842809999998e+03
-1.009114128510000000e+03
-1.010315548359999980e+03
-1.004729174650000004e+03
-1.011109355779999987e+03
-1.009240399150000030e+03
-1.011773271170000044e+03
-1.009767427099999964e+03
-1.008193073400000003e+03
-1.008475374200000033e+03
-1.008346484840000016e+03
-1.010236383589999946e+03
-1.010201501269999994e+03
-1.012041433699999970e+03
-1.008880684859999974e+03
-1.010703841430000011e+03
-1.008261346969999977e+03
-1.006850968190000003e+03
-1.009063630900000021e+03
-1.010585886110000047e+03
-1.010206570629999987e+03
-1.007861299990000020e+03
-1.010760959410000055e+03
-1.005091544839999983e+03
-1.009649661450000053e+03
-1.007824141950000012e+03
-1.012108772039999963e+03
-1.011305796310000005e+03
-1.010625629340000046e+03
-1.005960562070000037e+03
-1.011494118329999992e+03
-1.008057503649999944e+03
-1.008378268100000014e+03
-1.010289381000000049e+03
-1.006216929479999976e+03
-1.008467292639999982e+03
-1.011134023339999999e+03
-1.010087662580000028e+03
-1.011369023829999946e+03
-1.011519117670000014e+03
-1.007913152770000011e+03
-1.009842420759999982e+03
-1.010636986800000045e+03
-1.008957385380000005e+03
-1.010047479640000006e+03
-1.008094720430000052e+03
-1.007252681359999997e+03
-1.005850660670000025e+03
-1.009714211100000057e+03
-1.008673801000000026e+03
-1.008653067230000033e+03
-1.008538452740000025e+03
-1.007923766249999971e+03
-1.014384726480000040e+03
-1.007146191639999984e+03
-1.009039732790000016e+03
-1.009955602070000054e+03
-1.010432369750000021e+03
-1.011330746230000045e+03
-1.010097581709999986e+03
-1.005917479599999979e+03
-1.010814584250000053e+03
-1.010030373430000054e+03
-1.009243322110000008e+03
-1.009062660960000017e+03
-1.009128037579999955e+03
-1.012206523729999958e+03
-1.005306135319999953e+03
-1.008632498660000010e+03
-1.010269722890000025e+03
-1.007170277019999958e+03
-1.012681010259999994e+03
-1.008653217850000033e+03
-1.007767244310000024e+03
-1.006364813049999952e+03
-1.008166797070000030e+03
-1.009428583109999977e+03
-1.011933985539999981e+03
-1.006172684170000025e+03
-1.008128540209999983e+03
-1.009846856509999952e+03
-1.009388308960000018e+03
-1.011066089489999968e+03
-1.011149721180000029e+03
-1.009106298769999967e+03
-1.013470279330000039e+03
-1.008858080790000031e+03
-1.000977020799999991e+03
-1.008099749800000041e+03
-1.006261103250000019e+03
-1.012209278929999982e+03
-1.008672114810000039e+03
-1.006051716940000006e+03
-1.009130376550000051e+03
-1.009027136879999944e+03
-1.010901440930000035e+03
-1.012681661749999989e+03
-1.010634823289999986e+03
-1.011584238010000036e+03
-1.010810418079999977e+03
-1.010312539109999989e+03
-1.008780559280000034e+03
-1.010627621610000006e+03
-1.004984143870000025e+03
-1.008494681689999993e+03
-1.011927018470000007e+03
-1.009247800060000031e+03
-1.009252169080000044e+03
-1.009804138540000054e+03
-1.009643915139999990e+03
-1.010923912390000055e+03
-1.004315003319999960e+03
-1.008180461430000037e+03
-1.008179783420000035e+03
-1.010707960009999965e+03
-1.009448238640000000e+03
-1.011137871049999944e+03
-1.009456835510000019e+03
-1.011234580140000048e+03
-1.007503476040000010e+03
-1.010979546290000030e+03
-1.010061235130000000e+03
-1.013261078269999985e+03
-1.008680125259999954e+03
-1.013376603309999950e+03
-1.011695835890000012e+03
-1.009774046859999999e+03
-1.008203946500000029e+03
-1.006566796589999967e+03
-1.011030643499999996e+03
-1.010392684720000034e+03
-1.009317136430000005e+03
-1.007512906720000046e+03
-1.012899705700000027e+03
-1.009040396689999966e+03
-1.007798657550000030e+03
-1.010123613640000031e+03
-1.006733680700000036e+03
-1.004629249920000007e+03
-1.010306790920000026e+03
-1.009021709709999982e+03
-1.006398454089999973e+03
-1.011273750329999984e+03
-1.012457806770000047e+03
-1.008633986499999992e+03
-1.009952924359999997e+03
-1.008900487539999972e+03
-1.007956003259999989e+03
-1.011679914609999969e+03
-1.010792264120000027e+03
-1.007565853199999992e+03
-1.011511101909999979e+03
-1.007671141580000040e+03
-1.005372558870000034e+03
-1.009020431769999959e+03
-1.010008083909999982e+03
-1.007882185199999981e+03
-1.010080927180000003e+03
-1.010537072650000027e+03
-1.011277640550000001e+03
-1.010425790959999972e+03
-1.006453522880000037e+03
-1.006454235029999950e+03
-1.008584293920000050e+03
-1.007971760850000010e+03
-1.010150622470000030e+03
-1.009456879759999993e+03
-1.007286818880000055e+03
-1.006624358870000037e+03
-1.009686801390000028e+03
-1.007819196880000050e+03
-1.010258797149999964e+03
-1.008195320059999972e+03
-1.010499315249999995e+03
-1.009133886559999951e+03
-1.010452366210000037e+03
-1.010072803069999964e+03
-1.008283244660000037e+03
-1.010989602740000009e+03
-1.012381700600000045e+03
-1.009140522020000049e+03
-1.008362596489999987e+03
-1.012236609240000007e+03
-1.008094555829999990e+03
-1.008400047230000041e+03
-1.012447407089999956e+03
-1.008446776030000024e+03
-1.009825713700000051e+03
-1.007118403339999986e+03
-1.007222947299999987e+03
-1.007285911629999987e+03
-1.011065013270000009e+03
-1.009646944849999954e+03
-1.010765597240000034e+03
-1.007623721069999988e+03
-1.009889670069999966e+03
-1.009253219390000027e+03
-1.009768367610000041e+03
-1.004410146960000020e+03
-1.009911705780000034e+03
-1.006788314509999964e+03
-1.008300979170000005e+03
-1.009706192129999977e+03
-1.008763031319999982e+03
-1.005742110400000001e+03
-1.008287814659999981e+03
-1.008757464700000014e+03
-1.009700131820000024e+03
-1.008701724900000045e+03
-1.009898336210000025e+03
-1.013002622589999987e+03
-1.009737354009999990e+03
-1.010182502839999984e+03
-1.009694693710000024e+03
-1.011815139019999947e+03
-1.011700884679999945e+03
-1.012514075039999966e+03
-1.010964722159999951e+03
-1.008412424590000001e+03
-1.009813150579999956e+03
-1.010866105520000019e+03
-1.005879169749999960e+03
-1.009935472279999999e+03
-1.013496008759999995e+03
-1.010776320570000053e+03
-1.009756367299999965e+03
-1.011737068959999988e+03
-1.009199819759999968e+03
-1.010661706030000005e+03
-1.010371860480000009e+03
-1.011286440370000037e+03
-1.011158027250000032e+03
-1.010617647099999999e+03
-1.010446190239999964e+03
-1.009810651659999962e+03
-1.010516684380000015e+03
-1.013081096760000037e+03
-1.007216926469999976e+03
-1.008945740900000033e+03
-1.010064782319999949e+03
-1.011177169049999975e+03
-1.010717951699999958e+03
-1.010668290719999959e+03
-1.011672866669999962e+03
-1.006046917320000034e+03
-1.007727376489999983e+03
-1.012417449899999951e+03
-1.007621865400000047e+03
-1.009145052230000033e+03
-1.008276729079999996e+03
-1.006662712710000051e+03
-1.011426041090000012e+03
-1.006017756699999950e+03
-1.007693760939999947e+03
-1.009841744970000036e+03
-1.010706406280000010e+03
-1.008980889240000010e+03
-1.011528413849999993e+03
-1.007879977720000056e+03
-1.008614274710000018e+03
-1.010809426730000041e+03
-1.008702156380000019e+03
-1.009254401990000019e+03
-1.008562602289999973e+03
-1.005461273860000006e+03
-1.009012808059999998e+03
-1.008890087819999962e+03
-1.006745449420000000e+03
-1.010628079090000028e+03
-1.011382922949999966e+03
-1.008174798799999962e+03
-1.008296865870000033e+03
-1.007729485400000044e+03
-1.008408567489999996e+03
-1.006619713789999992e+03
-1.010856446590000019e+03
-1.008278621049999970e+03
-1.008610925780000002e+03
-1.010347601280000049e+03
-1.009102047070000026e+03
-1.007066418819999967e+03
-1.004357474789999969e+03
-1.008070291839999982e+03
-1.009403493219999973e+03
-1.012121284130000049e+03
-1.009667357889999948e+03
-1.007381367429999955e+03
-1.016125939710000011e+03
-1.008922473449999984e+03
-1.008851672290000010e+03
-1.007090443950000008e+03
-1.006289400129999990e+03
-1.011895822790000011e+03
-1.008903452410000000e+03
-1.010322797010000045e+03
-1.010205033039999989e+03
-1.011567753169999946e+03
-1.011934016759999963e+03
-1.009884904959999972e+03
-1.003473732730000052e+03
-1.012206163749999973e+03
-1.011256554789999996e+03
-1.010351591060000032e+03
-1.007784132369999952e+03
-1.011445432640000035e+03
-1.009329497940000010e+03
-1.007869674710000027e+03
-1.008889870579999979e+03
-1.009339739760000043e+03
-1.008700393930000018e+03
-1.008482895450000001e+03
-1.009102745959999993e+03
-1.008989193129999990e+03
-1.008734585519999996e+03
-1.009915479020000021e+03
-1.009110086679999995e+03
-1.009316559439999992e+03
-1.007623187489999964e+03
-1.006527049079999983e+03
-1.009291974090000053e+03
-1.007581412259999979e+03
-1.009622493220000024e+03
-1.011587272969999958e+03
-1.008932987189999949e+03
-1.006460237180000036e+03
-1.009185021150000011e+03
-1.005051124230000028e+03
-1.011485329360000037e+03
-1.010115171179999948e+03
-1.011413385070000004e+03
-1.011984197399999971e+03
-1.013050832059999948e+03
-1.012142118819999951e+03
-1.011988579830000049e+03
-1.006678316999999993e+03
-1.010160931789999950e+03
-1.009899253939999994e+03
-1.008075224629999980e+03
-1.011820848100000035e+03
-1.006715474289999975e+03
-1.010391399490000026e+03
-1.013133279769999945e+03
-1.010520736560000046e+03
-1.009093473150000023e+03
-1.010995554820000052e+03
-1.009573070369999982e+03
-1.004314638540000033e+03
-1.010817234549999966e+03
-1.008586309189999952e+03
-1.010060973979999972e+03
-1.009994020839999962e+03
-1.011095975849999945e+03
-1.006871664539999983e+03
-1.006277899469999966e+03
-1.011989058829999976e+03
-1.010818516489999979e+03
-1.011166927590000000e+03
-1.007690053000000034e+03
-1.009352880860000027e+03
-1.010908566930000006e+03
-1.012101663110000004e+03
-1.007156021420000002e+03
-1.007562210769999979e+03
-1.010415068799999972e+03
-1.010790706880000016e+03
-1.010536810380000020e+03
-1.010230586300000027e+03
-1.005415180670000041e+03
-1.009940804869999965e+03
-1.007653899010000032e+03
-1.010255008589999989e+03
-1.004814945429999966e+03
-1.008440882569999985e+03
-1.009818482209999956e+03
-1.009354231550000009e+03
-1.010320425279999995e+03
-1.007394338800000014e+03
-1.006215743159999988e+03
-1.007368438640000022e+03
-1.008751494699999967e+03
-1.010048771590000001e+03
-1.011106379830000037e+03
-1.009866473810000002e+03
-1.008820929630000023e+03
-1.011651785369999970e+03
-1.010616536389999965e+03
-1.009440254610000011e+03
-1.010826164189999986e+03
-1.010909865330000002e+03
-1.011424325419999946e+03
-1.008892379509999955e+03
-1.005859322040000052e+03
-1.006507581810000033e+03
-1.008198133470000016e+03
-1.009684837199999947e+03
-1.007103311289999965e+03
-1.010332327370000030e+03
-1.010516289049999955e+03
-1.008888780379999957e+03
-1.013789155359999995e+03
-1.013306400499999995e+03
-1.009093591650000008e+03
-1.010717697680000015e+03
-1.011040573780000045e+03
-1.013144696199999998e+03
-1.007163496010000017e+03
-1.012322252729999946e+03
-1.006556187639999962e+03
-1.013896412000000055e+03
-1.009614737149999996e+03
-1.004567726839999978e+03
-1.008897652809999954e+03
-1.011490469019999978e+03
-1.003681633619999957e+03
-1.008144373920000021e+03
-1.008835950270000012e+03
-1.010364736569999991e+03
-1.011152804019999962e+03
-1.006745679859999996e+03
-1.009044015429999945e+03
-1.005730066449999981e+03
-1.011838996859999952e+03
-1.009257738199999949e+03
-1.009018846449999955e+03
-1.010134609009999963e+03
-1.010071099219999951e+03
-1.010120661629999972e+03
-1.007577439840000011e+03
-1.012809282700000040e+03
-1.006223646310000049e+03
-1.012392753360000029e+03
-1.009439661369999953e+03
-1.009973844699999972e+03
-1.008169306620000043e+03
-1.011793141289999994e+03
-1.007742305470000019e+03
-1.011122846009999989e+03
-1.012237807869999983e+03
-1.003048233190000019e+03
-1.006849545089999992e+03
-1.005797340640000016e+03
-1.002562442870000041e+03
-1.007322197409999944e+03
-1.013406755200000021e+03
-1.007949863140000048e+03
-1.014310771830000022e+03
-1.008356440000000021e+03
-1.005224196389999975e+03
-1.010938909009999975e+03
-1.008713592840000047e+03
-1.008435704279999982e+03
-1.012439247359999968e+03
-1.009137223479999989e+03
-1.006771884920000048e+03
-1.010431566869999983e+03
-1.008518092410000008e+03
-1.011964462919999960e+03
-1.009682569859999944e+03
-1.007874804229999995e+03
-1.010893370910000044e+03
-1.008328725810000037e+03
-1.006547493919999965e+03
-1.009713479249999978e+03
-1.010806835480000018e+03
-1.006862012550000031e+03
-1.012490750680000019e+03
-1.008424198100000012e+03
-1.010697259769999960e+03
-1.011158358470000053e+03
-1.010362026310000033e+03
-1.012196088479999958e+03
-1.011246004670000048e+03
-1.005119717229999992e+03
-1.009692648240000040e+03
-1.009959625849999952e+03
-1.008073307040000032e+03
-1.009269024790000003e+03
-1.011511716129999968e+03
-1.013236997950000045e+03
-1.007190705989999969e+03
-1.007451057070000047e+03
-1.008718332550000014e+03
-1.007494998119999991e+03
-1.006984668830000032e+03
-1.010220657820000042e+03
-1.006205459980000001e+03
-1.010468990970000050e+03
-1.009475353670000004e+03
-1.006860407440000017e+03
-1.011749882999999954e+03
-1.007688084249999974e+03
-1.012418152019999980e+03
-1.009451350100000013e+03
-1.009361980379999977e+03
-1.012232689629999982e+03
-1.008971155370000020e+03
-1.009919268220000049e+03
-1.004308861630000024e+03
-1.007934359419999964e+03
-1.011196265710000034e+03
-1.011603892259999952e+03
-1.012910586500000022e+03
-1.014236189279999962e+03
-1.012754337360000022e+03
-1.007810970959999963e+03
-1.011041577950000033e+03
-1.012347365510000031e+03
-1.010854378989999987e+03
-1.012435997300000054e+03
-1.012682601589999990e+03
-1.009938385280000034e+03
-1.010517331119999994e+03
-1.010748534530000029e+03
-1.010135758160000023e+03
-1.008589176070000008e+03
-1.013670246560000010e+03
-1.009402707719999967e+03
-1.004426375229999962e+03
-1.010720359560000020e+03
-1.008247179269999947e+03
-1.008823176930000045e+03
-1.008620223509999960e+03
-1.012328296120000005e+03
-1.007211653520000027e+03
-1.010746513980000032e+03
-1.006205961509999952e+03
-1.007339240980000000e+03
-1.010501415350000002e+03
-1.009479638470000054e+03
-1.011540521610000042e+03
-1.007767546769999967e+03
-1.007229798670000037e+03
-1.011382235759999958e+03
-1.010087658749999946e+03
-1.009975463419999983e+03
-1.007470806919999973e+03
-1.008811459560000003e+03
-1.008463172210000039e+03
-1.009767999379999992e+03
-1.007056445410000038e+03
-1.009857431730000030e+03
-1.009542336320000004e+03
-1.004053165889999946e+03
-1.004460085169999957e+03
-1.007434038249999958e+03
-1.009395515609999961e+03
-1.011852341109999998e+03
-1.008104747230000044e+03
-1.009391663949999952e+03
-1.014239496730000042e+03
-1.012261137780000013e+03
-1.007655255919999945e+03
-1.010150695120000023e+03
-1.007034809979999977e+03
-1.007573624559999985e+03
-1.010659586949999948e+03
-1.011286950840000031e+03
