-7.691586458081463643e-03 3.594422690504909656e-03 3.213235003659841577e-03 3.594422690504909656e-03 -8.875981471318197813e-03 -1.425360956059708046e-03 3.213235003659841577e-03 -1.425360956059708046e-03 -1.122106624613155787e-02
-7.912935337721787449e-03 -9.895731715323255115e-03 -4.301604398994860259e-03 -9.895731715323255115e-03 -5.602160138573406348e-03 -9.751665201679617090e-03 -4.301604398994860259e-03 -9.751665201679617090e-03 -1.057543830064106710e-02
1.697186792453787493e-02 -3.096830858462118734e-03 4.342217898876983150e-04 -3.096830858462118734e-03 -1.314788876989210313e-02 -1.173253295296118603e-02 4.342217898876983150e-04 -1.173253295296118603e-02 -1.148790324428131983e-02
-1.046194269869600742e-02 -2.408517232059712802e-03 -1.150004297953116216e-03 -2.408517232059712802e-03 -3.843814670647826854e-03 -1.413245562695455981e-02 -1.150004297953116216e-03 -1.413245562695455981e-02 -9.553060381294012360e-03
-2.060378336036196648e-02 2.969784940204764790e-03 5.504599109426726138e-03 2.969784940204764790e-03 -1.772498089868520046e-02 1.232102612391334194e-02 5.504599109426726138e-03 1.232102612391334194e-02 -1.006864648414672499e-02
-1.403253530735829382e-02 8.355345987582646003e-03 3.070997252190087613e-03 8.355345987582646003e-03 -9.967296858960632278e-03 6.286697651954653403e-03 3.070997252190087613e-03 6.286697651954653403e-03 8.519928341723060836e-03
-1.506002502267944805e-02 3.911016999406212100e-03 3.436468819056181200e-03 3.911016999406212100e-03 -5.274474667955410083e-03 -1.421531166060066055e-02 3.436468819056181200e-03 -1.421531166060066055e-02 -1.539189230441178821e-02
-1.444028061553399682e-02 2.117040004182789772e-02 1.618730398590522562e-02 2.117040004182789772e-02 -2.590844196645014641e-02 -8.704783117504343720e-03 1.618730398590522562e-02 -8.704783117504343720e-03 -1.324537490092927636e-02
-5.297156312118870593e-03 5.698691318714316743e-03 -2.150511969323076582e-03 5.698691318714316743e-03 -7.376508835897751561e-03 -3.754130426018010853e-03 -2.150511969323076582e-03 -3.754130426018010853e-03 -1.357827827317650837e-03
-1.590246023392729094e-02 -2.391933542312241179e-04 -3.129492675717865336e-04 -2.391933542312241179e-04 -1.308249647878022455e-02 9.894857904045631716e-03 -3.129492675717865336e-04 9.894857904045631716e-03 -1.247110945235433213e-02
-1.300256147140503755e-02 -4.639507220051927380e-03 1.039704972831419910e-02 -4.639507220051927380e-03 -7.084849355954352633e-03 2.044718389639355559e-04 1.039704972831419910e-02 2.044718389639355559e-04 -7.102032230577908639e-03
-1.231964050888739726e-02 3.619182757207288059e-03 -3.246333726554400420e-04 3.619182757207288059e-03 -1.161478688330139925e-02 -5.328576069058565089e-03 -3.246333726554400420e-04 -5.328576069058565089e-03 -1.073692486625504525e-02
-1.945547051138196357e-02 -5.833813749780563133e-04 -3.576852842315548196e-03 -5.833813749780563133e-04 -2.948607499740643189e-03 -2.983254116898421027e-04 -3.576852842315548196e-03 -2.983254116898421027e-04 -2.820263347585105600e-03
-1.183476887244315663e-02 5.924927300000207807e-03 2.701936817576610413e-03 5.924927300000207807e-03 -2.373377535680989883e-03 -3.261750254095331907e-03 2.701936817576610413e-03 -3.261750254095331907e-03 9.834309024015438789e-04
2.325405296539450987e-03 -4.440396837427126008e-03 6.663266622046568055e-03 -4.440396837427126008e-03 -2.899112332372388856e-03 -1.172217828932134822e-04 6.663266622046568055e-03 -1.172217828932134822e-04 2.128129917597659619e-03
-5.300145994990167544e-03 1.392880142568611633e-03 1.860406625152022592e-04 1.392880142568611633e-03 -1.531313070075226643e-02 8.615529537004213909e-03 1.860406625152022592e-04 8.615529537004213909e-03 -6.418499600165929360e-03
4.077971127014462863e-03 -6.843477715038195040e-03 1.323874017672846100e-03 -6.843477715038195040e-03 3.481513790417681709e-03 6.930515559798637072e-03 1.323874017672846100e-03 6.930515559798637072e-03 1.412815522716682646e-03
-9.560313014898290038e-03 -3.023636680942885530e-03 1.006281067311402475e-03 -3.023636680942885530e-03 -2.447341291275444142e-02 6.700403601345572904e-03 1.006281067311402475e-03 6.700403601345572904e-03 -4.181773665287027465e-03
-1.707326124028784795e-02 -6.307694088654123947e-03 -1.086496942597254102e-03 -6.307694088654123947e-03 -1.712291868689337637e-02 -3.200577223152550280e-03 -1.086496942597254102e-03 -3.200577223152550280e-03 -7.475605276289399095e-03
-1.227206772632991397e-02 5.496266694743671098e-03 2.499431053987328372e-03 5.496266694743671098e-03 -8.584365681938679188e-03 4.064364637120038148e-03 2.499431053987328372e-03 4.064364637120038148e-03 -5.350808324564962012e-03
-1.991417774157050111e-02 2.410782899872408291e-04 3.403432511252881248e-03 2.410782899872408291e-04 -1.151171460159656351e-02 7.089330759506736607e-03 3.403432511252881248e-03 7.089330759506736607e-03 -1.659693422983694183e-02
-5.543745854664264804e-03 -8.064529111371239022e-04 -2.984702147015625903e-03 -8.064529111371239022e-04 2.023690745394254430e-03 1.708313530772499452e-03 -2.984702147015625903e-03 1.708313530772499452e-03 -4.003197847686382031e-03
-7.834841575538735751e-04 4.616544707977803322e-03 -1.675895132372662039e-03 4.616544707977803322e-03 -1.541238317887206125e-02 -4.052755430145894497e-03 -1.675895132372662039e-03 -4.052755430145894497e-03 -8.614037816323126887e-03
-8.075245782540381445e-03 -3.568071038975430872e-03 -7.731313663667710272e-03 -3.568071038975430872e-03 -9.585428847620843310e-03 6.677865511892009526e-03 -7.731313663667710272e-03 6.677865511892009526e-03 -1.073650668514361008e-02
6.337453604166334853e-03 6.030383838191131357e-03 8.229885412643264328e-03 6.030383838191131357e-03 -5.538184670033103468e-03 3.099265047021212797e-03 8.229885412643264328e-03 3.099265047021212797e-03 -8.176439369998327088e-04
-1.370494345937718628e-02 5.456283587283262959e-03 -4.503061589050994006e-04 5.456283587283262959e-03 -1.045326700101102853e-02 1.163429784082891175e-03 -4.503061589050994006e-04 1.163429784082891175e-03 -8.822142213598328092e-03
-1.811950669053228116e-02 -5.153489255059288390e-04 5.038258513577231409e-03 -5.153489255059288390e-04 -1.329158703449731527e-02 6.148947545546409356e-04 5.038258513577231409e-03 6.148947545546409356e-04 -7.529319703826750166e-04
-1.549052063161899216e-02 1.528907592458111139e-03 -9.191002919919775971e-03 1.528907592458111139e-03 2.793743175309227646e-03 1.080105637252349671e-03 -9.191002919919775971e-03 1.080105637252349671e-03 -1.495384446942992157e-03
-6.801996645387573665e-05 4.820691988467193725e-04 -2.651230797437935209e-03 4.820691988467193725e-04 -5.703391175086108301e-03 3.519424716848296598e-03 -2.651230797437935209e-03 3.519424716848296598e-03 -2.744959539981324352e-03
4.998381511771964741e-03 9.893478530528811675e-04 8.023085490775374012e-04 9.893478530528811675e-04 4.851181760547133501e-03 3.984429629744851153e-03 8.023085490775374012e-04 3.984429629744851153e-03 1.019976186635415498e-02
-1.284535658105141753e-02 -2.554587270132758700e-03 3.890182841944013915e-03 -2.554587270132758700e-03 -2.130263265416886334e-02 -5.945237170695832386e-03 3.890182841944013915e-03 -5.945237170695832386e-03 -1.010418563710950395e-02
-1.679386008426768384e-02 -4.966992962377896927e-04 4.258687782245287358e-03 -4.966992962377896927e-04 -5.338731004406377378e-03 6.885826354457312733e-03 4.258687782245287358e-03 6.885826354457312733e-03 -2.820141014006238150e-02
1.728617159958997654e-03 -3.946256559930949245e-03 5.172014054144909861e-03 -3.946256559930949245e-03 -1.484347586355692743e-02 -2.809153461341033081e-03 5.172014054144909861e-03 -2.809153461341033081e-03 -2.474230336740662270e-02
4.793728669043377478e-04 -1.113273016747293349e-03 8.361924538201325266e-03 -1.113273016747293349e-03 3.479809858426315215e-03 2.547315912001104927e-03 8.361924538201325266e-03 2.547315912001104927e-03 -9.624070030619187935e-03
-1.602043099791560996e-02 3.750441694124613447e-03 -8.258733667823097910e-03 3.750441694124613447e-03 -2.307485923839040900e-05 4.781932216795458344e-04 -8.258733667823097910e-03 4.781932216795458344e-04 -1.952548776075612239e-02
-5.192292717294905158e-03 1.988544807506406002e-03 3.157985164877523399e-03 1.988544807506406002e-03 -2.464222701008220856e-02 -7.723337015004832704e-03 3.157985164877523399e-03 -7.723337015004832704e-03 -1.152374823119126784e-02
4.399446296052205753e-03 -5.138122659591363474e-03 -1.142407757196003786e-02 -5.138122659591363474e-03 -7.898317723348969449e-03 -2.547877647822434626e-03 -1.142407757196003786e-02 -2.547877647822434626e-03 -1.852569162142651132e-02
8.015807891134594729e-03 4.493530804615770632e-03 9.666830609640613553e-03 4.493530804615770632e-03 -1.562948783230678432e-03 -5.277539248936218355e-03 9.666830609640613553e-03 -5.277539248936218355e-03 -2.783968972018094866e-03
-8.841940280545629652e-03 -6.082725133720787679e-03 -4.994667813842063563e-03 -6.082725133720787679e-03 -1.228909456322532269e-02 6.253030951729638375e-03 -4.994667813842063563e-03 6.253030951729638375e-03 5.055123071235368424e-04
-8.653321874761438909e-03 3.987400588088770709e-03 -1.261872738469059681e-02 3.987400588088770709e-03 -1.585844511157156328e-02 6.926527235467197854e-03 -1.261872738469059681e-02 6.926527235467197854e-03 -1.397371532535597073e-02
-1.934318576220732345e-03 2.938377666283320012e-03 3.251470488565002485e-03 2.938377666283320012e-03 2.907307433854673141e-03 -8.642811173393450883e-03 3.251470488565002485e-03 -8.642811173393450883e-03 -8.613089106935993902e-03
-5.284067867481892673e-03 4.145860021776696025e-04 -7.434723391514863784e-03 4.145860021776696025e-04 9.810204315771276634e-03 4.444778376833495755e-03 -7.434723391514863784e-03 4.444778376833495755e-03 -9.154814650007905841e-03
4.018071363933361541e-03 -2.867923511270349928e-03 -5.467742998038383970e-03 -2.867923511270349928e-03 5.279754984675907436e-04 3.904007784657844912e-03 -5.467742998038383970e-03 3.904007784657844912e-03 -9.498815425480961958e-03
-9.951131350324594199e-03 -5.856283182633743520e-04 6.155288918818306240e-03 -5.856283182633743520e-04 -4.869550521904607472e-03 9.690510895264212859e-03 6.155288918818306240e-03 9.690510895264212859e-03 -1.950172009400475857e-03
8.787433181349290495e-03 -5.816387456301097721e-03 -6.374702930629607333e-04 -5.816387456301097721e-03 1.032825581472871304e-02 -5.619230666032697975e-03 -6.374702930629607333e-04 -5.619230666032697975e-03 -6.038940947202716888e-03
-2.173343409705557564e-03 -2.647604480635797237e-03 5.089314058226957274e-03 -2.647604480635797237e-03 -2.349447589692353622e-02 1.000651226079855762e-03 5.089314058226957274e-03 1.000651226079855762e-03 -1.569082314248683788e-02
1.355399256116770167e-02 -3.055755486904680913e-03 -8.384138069180344793e-03 -3.055755486904680913e-03 -3.715120993981239905e-03 3.421926102792873653e-03 -8.384138069180344793e-03 3.421926102792873653e-03 -1.035830868116984112e-02
-9.309691457457573704e-03 7.633808808103162251e-03 9.262880139013447700e-03 7.633808808103162251e-03 -4.709174944915037707e-03 -1.002636025981886673e-03 9.262880139013447700e-03 -1.002636025981886673e-03 -6.129892218185088552e-03
-1.846212185097938913e-02 6.409780211917071036e-03 7.662919206666281985e-03 6.409780211917071036e-03 5.834063410145599350e-03 1.083341859734120172e-02 7.662919206666281985e-03 1.083341859734120172e-02 -3.065317478885533787e-03
-2.982049505637125557e-03 -4.272144475920692033e-03 -9.684325559720464776e-04 -4.272144475920692033e-03 -1.039106412106247448e-02 6.241927306994692233e-03 -9.684325559720464776e-04 6.241927306994692233e-03 -1.219363068114493950e-02
-9.683071016386159482e-03 -6.192825354701368701e-05 6.732366369579221438e-03 -6.192825354701368701e-05 -7.058035832749557509e-03 -1.254451584118384394e-02 6.732366369579221438e-03 -1.254451584118384394e-02 1.253831802262184159e-03
-1.367361732507437790e-02 4.278467124665211521e-03 1.061934107583253212e-02 4.278467124665211521e-03 -2.872854303479798355e-03 -1.308164139202997985e-03 1.061934107583253212e-02 -1.308164139202997985e-03 -1.127159126250558419e-02
-7.128202878342738101e-03 -2.640776269652081107e-03 -9.258841882609003537e-03 -2.640776269652081107e-03 -8.611353967398999859e-03 6.370876885535440258e-03 -9.258841882609003537e-03 6.370876885535440258e-03 6.825158885753727749e-03
-3.426214019562355334e-04 5.328544861512935805e-03 6.515617482164674096e-03 5.328544861512935805e-03 -1.411662715981131834e-02 1.346443314672039846e-03 6.515617482164674096e-03 1.346443314672039846e-03 -1.379496474549980235e-02
-3.431113604226174261e-03 -1.008957426424581146e-02 4.794371544483343357e-03 -1.008957426424581146e-02 9.576565904662088721e-03 -1.756504222733443980e-03 4.794371544483343357e-03 -1.756504222733443980e-03 -5.977493289858396355e-03
-1.327126468078343967e-02 3.307188440531762079e-03 -1.111512287022881594e-02 3.307188440531762079e-03 -1.305407264622095165e-02 6.752913417621628396e-03 -1.111512287022881594e-02 6.752913417621628396e-03 -5.076812315447812828e-03
-1.755242189588190546e-02 -2.743754928720028557e-03 7.386102035424233284e-03 -2.743754928720028557e-03 -1.251034357871963487e-02 7.499023418529714852e-03 7.386102035424233284e-03 7.499023418529714852e-03 -1.940544481573800578e-02
-2.477862895051926098e-02 -6.074361511492104874e-04 -2.640676405506066880e-03 -6.074361511492104874e-04 -1.191327457422851517e-02 4.413202582165653108e-03 -2.640676405506066880e-03 4.413202582165653108e-03 1.201989827462597886e-03
-1.363598726655442656e-02 5.351157849076011155e-04 4.666208396092457258e-03 5.351157849076011155e-04 -1.522053791286978597e-02 -8.289504307813701234e-03 4.666208396092457258e-03 -8.289504307813701234e-03 -1.877872864289894389e-02
-1.438979304821472703e-02 -1.182116238254872845e-02 -2.183155062051446004e-03 -1.182116238254872845e-02 -2.434003810424344508e-02 6.260246136279160392e-03 -2.183155062051446004e-03 6.260246136279160392e-03 -1.507708306712048779e-02
1.942195360737597205e-03 6.507285067481619924e-03 8.740209923302860034e-03 6.507285067481619924e-03 3.516497449068257345e-03 -3.092861258658056479e-03 8.740209923302860034e-03 -3.092861258658056479e-03 -1.530936082924023436e-03
-7.773300295557527152e-04 -6.342771369941588300e-03 -3.141726033604597037e-03 -6.342771369941588300e-03 2.529246743081672659e-04 2.301050927930255001e-03 -3.141726033604597037e-03 2.301050927930255001e-03 -7.040990271326771389e-03
3.998454300750711038e-03 4.435902950856490039e-04 3.922051987540774165e-03 4.435902950856490039e-04 -1.717732592194369870e-02 6.418206249237013057e-04 3.922051987540774165e-03 6.418206249237013057e-04 -1.114215484625301691e-03
3.528225244715791752e-03 1.541321954109492812e-03 5.230515719181813745e-03 1.541321954109492812e-03 1.842843018471787293e-03 2.343611778659653033e-03 5.230515719181813745e-03 2.343611778659653033e-03 4.768169689172886347e-03
-5.722777302431101068e-03 -3.105575212747480832e-03 -5.513449569367227972e-03 -3.105575212747480832e-03 1.128595921651336662e-03 -2.082604350033466674e-03 -5.513449569367227972e-03 -2.082604350033466674e-03 8.867674022671646547e-03
-1.756571006881091010e-02 -3.295479369411604634e-03 -2.950841960007709232e-03 -3.295479369411604634e-03 -1.188978777538781534e-02 -6.429646935464757539e-03 -2.950841960007709232e-03 -6.429646935464757539e-03 -9.265595195483207480e-03
-9.362663145408943802e-03 -6.710883095167930780e-03 -3.413849589983981424e-03 -6.710883095167930780e-03 1.734515386082957167e-04 -5.339423811919351455e-03 -3.413849589983981424e-03 -5.339423811919351455e-03 -2.058150117278256461e-03
-1.732730314472954655e-03 1.524257668159328212e-03 2.152234625841820473e-03 1.524257668159328212e-03 -1.548850462417133284e-02 -2.132361660785008026e-03 2.152234625841820473e-03 -2.132361660785008026e-03 -2.619498340891032034e-02
2.121364121705201621e-03 -1.801561677113195292e-03 -2.617589063249423954e-03 -1.801561677113195292e-03 -1.213628369529632343e-02 1.564721371822429003e-03 -2.617589063249423954e-03 1.564721371822429003e-03 1.556033191119199962e-03
1.017888401832807606e-02 1.872914609440292765e-03 2.384549837016321401e-03 1.872914609440292765e-03 1.853869268493572864e-02 2.300414293999414848e-03 2.384549837016321401e-03 2.300414293999414848e-03 -4.045771181434031083e-03
-2.748392370000559814e-03 7.158717616459180783e-03 -4.003278987305018861e-03 7.158717616459180783e-03 -8.048837957428769604e-03 8.133853553232425065e-03 -4.003278987305018861e-03 8.133853553232425065e-03 7.569858305599362278e-03
-1.344299980438211882e-02 1.211901343954500552e-03 -2.093839066460056650e-04 1.211901343954500552e-03 -5.078410141784038719e-03 -3.136064984827421041e-03 -2.093839066460056650e-04 -3.136064984827421041e-03 -2.596263074868106202e-02
-6.190478547270037574e-03 7.265928018714477941e-04 -5.678337757454812078e-04 7.265928018714477941e-04 1.294832275710111310e-03 -2.908630633789360993e-03 -5.678337757454812078e-04 -2.908630633789360993e-03 1.659898144483023348e-03
-1.981779011613948437e-03 2.277358159288402073e-03 -1.968053933046131233e-03 2.277358159288402073e-03 1.211798359053923441e-02 -2.159150217953298943e-03 -1.968053933046131233e-03 -2.159150217953298943e-03 1.195124167424126312e-03
-1.684648848921713182e-02 1.362521442180315151e-03 -4.643376955709975842e-03 1.362521442180315151e-03 -4.667668909227913263e-03 7.128745889636688669e-03 -4.643376955709975842e-03 7.128745889636688669e-03 -7.472172446270164935e-03
-8.280816127110471325e-03 -3.209621169875955492e-03 7.188826656482441915e-03 -3.209621169875955492e-03 -1.560645666363227532e-02 -8.838313963743489945e-03 7.188826656482441915e-03 -8.838313963743489945e-03 -1.322122650212123260e-02
-8.505953602790208498e-03 4.756635380308253148e-03 9.066952926042846223e-03 4.756635380308253148e-03 -3.422100865048398766e-03 8.859447713643732545e-04 9.066952926042846223e-03 8.859447713643732545e-04 -1.983356240970059192e-02
1.417059748922283157e-03 8.641619045150406757e-04 -1.171150530871608534e-03 8.641619045150406757e-04 -1.326266388120797383e-02 -1.324610515749700262e-03 -1.171150530871608534e-03 -1.324610515749700262e-03 -1.807285765132542882e-02
-4.895964588525345473e-04 -4.593438641193783975e-04 3.429003974141625784e-03 -4.593438641193783975e-04 1.685113841351591497e-03 -6.397434506866073872e-03 3.429003974141625784e-03 -6.397434506866073872e-03 6.015354284216004564e-03
4.663817898097243932e-03 -4.297715938809435268e-03 -7.217262972059965837e-03 -4.297715938809435268e-03 7.192964777032901389e-04 -9.155869465050179429e-03 -7.217262972059965837e-03 -9.155869465050179429e-03 -5.088490179022339688e-03
-1.856993143811077468e-02 -5.072187357185533457e-03 5.412605506420332772e-03 -5.072187357185533457e-03 -2.088096878064244313e-04 5.761524591084584562e-03 5.412605506420332772e-03 5.761524591084584562e-03 -1.229296429888337115e-03
-8.073042529818944685e-03 -7.103661264459764681e-03 4.546564907658400163e-03 -7.103661264459764681e-03 -1.227496378656432394e-02 -1.490821903771971570e-03 4.546564907658400163e-03 -1.490821903771971570e-03 -9.409780297800237128e-03
-7.458815616740774486e-03 -2.231851316251587392e-03 -1.127900617534713205e-02 -2.231851316251587392e-03 -4.577947215543341601e-03 -8.134590051309278577e-03 -1.127900617534713205e-02 -8.134590051309278577e-03 9.299592695691893604e-03
-1.620191535876891811e-02 -5.912644010040470077e-04 -5.158850711398422356e-03 -5.912644010040470077e-04 -1.099612225723472711e-02 3.465004998779719781e-03 -5.158850711398422356e-03 3.465004998779719781e-03 -2.365457060600244243e-02
-1.046186780058649436e-02 4.140779433348226908e-03 -4.743010165886451038e-03 4.140779433348226908e-03 -6.378641322888038354e-03 2.751581781163886086e-03 -4.743010165886451038e-03 2.751581781163886086e-03 -9.373067741121791224e-03
-3.637582726110392180e-03 2.540131934997213493e-03 -3.004543904526809067e-03 2.540131934997213493e-03 -1.739939881664262500e-02 -2.877660265506727915e-03 -3.004543904526809067e-03 -2.877660265506727915e-03 -7.287529881799158921e-03
6.223658409783232705e-04 -2.955635439016387773e-03 -1.090522715983448764e-03 -2.955635439016387773e-03 1.659161646406168752e-03 -1.148636783303635077e-02 -1.090522715983448764e-03 -1.148636783303635077e-02 1.054804431708756748e-02
-1.921652057600664945e-02 -2.848063029231789694e-04 3.402433869792740283e-03 -2.848063029231789694e-04 -2.068336884322610064e-02 1.498992039217752733e-03 3.402433869792740283e-03 1.498992039217752733e-03 -1.484513610498441188e-02
1.881933590127194203e-03 -4.605135229295688991e-03 -5.271859475631664529e-03 -4.605135229295688991e-03 -5.159300100055485942e-03 -2.195869016140870357e-03 -5.271859475631664529e-03 -2.195869016140870357e-03 -6.709928144271669684e-03
9.344774980254162700e-03 3.502859751628202155e-04 6.396048891840128321e-03 3.502859751628202155e-04 -1.524105375336656625e-02 3.115792563186551688e-03 6.396048891840128321e-03 3.115792563186551688e-03 -9.341616776636465710e-03
-1.913965014961226813e-02 1.042107953844884950e-02 -4.229265308225873925e-03 1.042107953844884950e-02 -9.825158971636892974e-03 2.086261874381234796e-03 -4.229265308225873925e-03 2.086261874381234796e-03 -1.850314729046382070e-02
-3.637152061980706425e-03 4.269004996830371573e-03 -3.797015835221954471e-03 4.269004996830371573e-03 -5.325374174876987797e-03 2.769457463300416169e-03 -3.797015835221954471e-03 2.769457463300416169e-03 5.913405474153827363e-03
-9.011802951406542271e-04 2.791739650879818905e-03 -2.821630238083673754e-03 2.791739650879818905e-03 2.098195639829923166e-03 -4.295094504976564205e-03 -2.821630238083673754e-03 -4.295094504976564205e-03 8.306793288092398711e-03
-1.783668518751113305e-02 -7.112624071564533496e-03 -2.956590389912647568e-03 -7.112624071564533496e-03 -7.581685965392910911e-03 -1.570725703601528848e-03 -2.956590389912647568e-03 -1.570725703601528848e-03 -1.139722035819136156e-02
-4.276981645493250876e-03 5.674692716125295626e-03 -4.026085461650995745e-04 5.674692716125295626e-03 -6.876333019076843502e-03 -3.323790854806611206e-04 -4.026085461650995745e-04 -3.323790854806611206e-04 -1.667484698825534226e-02
4.497319400655181397e-03 7.096776879893915493e-03 4.277599554896713632e-03 7.096776879893915493e-03 -1.285192264865184751e-02 4.887332581404248838e-03 4.277599554896713632e-03 4.887332581404248838e-03 9.577658168759118186e-04
-1.567892058458377966e-02 2.521351234037430295e-03 -2.855902364693898784e-03 2.521351234037430295e-03 -8.065714998105158505e-04 5.369058497249045228e-03 -2.855902364693898784e-03 5.369058497249045228e-03 -7.734596697467925261e-03
-1.040511999961396539e-02 8.078360295594198132e-03 1.903229619264708078e-03 8.078360295594198132e-03 -8.459610397530525211e-03 7.395564163259072798e-04 1.903229619264708078e-03 7.395564163259072798e-04 -1.819442976607938550e-02
-2.364845392705907864e-02 4.183577461424407319e-03 -1.711752602300861291e-03 4.183577461424407319e-03 -6.034297264413060122e-03 2.324250617351163173e-03 -1.711752602300861291e-03 2.324250617351163173e-03 -1.226193151550947907e-02
-2.616343258027897800e-02 -1.889323536932239816e-03 -8.155393001225849647e-03 -1.889323536932239816e-03 -2.301824875061864520e-02 -3.950419646517913143e-03 -8.155393001225849647e-03 -3.950419646517913143e-03 -1.390274312508555168e-02
4.660097958658217352e-04 1.039236859646978754e-02 4.382893813850364390e-03 1.039236859646978754e-02 6.231229360352928508e-03 2.573505284293310918e-03 4.382893813850364390e-03 2.573505284293310918e-03 -3.471714621090045048e-04
-9.551431347412157186e-03 -4.442955856168738830e-04 -7.550977740493567021e-03 -4.442955856168738830e-04 4.948830170821576268e-04 5.570983800489619307e-04 -7.550977740493567021e-03 5.570983800489619307e-04 -5.291613852015084919e-04
-1.334163145466864611e-02 -1.999760799405618256e-03 -1.999367584330687727e-03 -1.999760799405618256e-03 -1.066331250762437947e-02 2.441553539863013187e-03 -1.999367584330687727e-03 2.441553539863013187e-03 -1.409273466287743783e-02
2.339380035472304192e-03 9.267973210460168920e-03 4.395557835866780762e-03 9.267973210460168920e-03 6.650259317028227833e-03 -3.147780297456703996e-03 4.395557835866780762e-03 -3.147780297456703996e-03 -1.217577372353578595e-02
4.244706801803308643e-03 1.365879374090040376e-03 -1.331001821094604694e-04 1.365879374090040376e-03 -1.903179687191700964e-03 1.166032493388384408e-03 -1.331001821094604694e-04 1.166032493388384408e-03 4.537795587336534292e-03
2.135276445546795392e-03 2.709676288892706036e-03 -8.381722605148627043e-04 2.709676288892706036e-03 5.277919980992897865e-03 -1.283018347236639448e-02 -8.381722605148627043e-04 -1.283018347236639448e-02 -1.560526453538923185e-02
-8.433483440329576919e-03 -7.370267326771867168e-03 -4.749557508959501885e-03 -7.370267326771867168e-03 -1.214924106824165698e-02 -4.134331954421188553e-03 -4.749557508959501885e-03 -4.134331954421188553e-03 -8.705850415564870062e-03
-6.325744533046177842e-03 4.451625312344591016e-03 8.592866617368131663e-03 4.451625312344591016e-03 -1.494063119461042435e-02 -3.338389744652052460e-03 8.592866617368131663e-03 -3.338389744652052460e-03 -2.143437218728887900e-02
-1.438489346355090702e-02 -1.647071843229333207e-04 -4.131254890422129478e-04 -1.647071843229333207e-04 -2.767290411331909186e-02 -4.571262559269520867e-03 -4.131254890422129478e-04 -4.571262559269520867e-03 -3.241465349436211535e-03
-7.538469756205296197e-03 -3.914755663372616185e-03 -4.235363262641861511e-04 -3.914755663372616185e-03 3.983143878864919829e-03 -2.257029564065400097e-03 -4.235363262641861511e-04 -2.257029564065400097e-03 -9.573507565190406826e-03
-7.802529282794039810e-03 3.146725482414429540e-03 1.001031958136534622e-03 3.146725482414429540e-03 -1.123737530947748961e-02 -1.026697043662166573e-03 1.001031958136534622e-03 -1.026697043662166573e-03 1.629892089360339413e-02
1.636636039970856176e-03 7.794590083185915300e-03 -7.199568293688085943e-03 7.794590083185915300e-03 -2.015682265034833900e-02 -3.214757931886557448e-03 -7.199568293688085943e-03 -3.214757931886557448e-03 2.122475110329609133e-03
-1.130457763823587702e-02 -7.101963573977524563e-03 -3.271836532842759687e-03 -7.101963573977524563e-03 -1.003303867458356195e-02 2.372516207421618371e-03 -3.271836532842759687e-03 2.372516207421618371e-03 -5.692000420931370500e-03
-5.726559656961386323e-03 -5.692880473718119733e-05 -1.044616416362577392e-03 -5.692880473718119733e-05 2.561465413189481944e-03 -1.208102761500487975e-02 -1.044616416362577392e-03 -1.208102761500487975e-02 -1.633490319371411073e-03
-1.610038472981817348e-02 3.192769095236070147e-03 2.515403075840463940e-03 3.192769095236070147e-03 -1.979709951338718549e-02 -3.378497682294978599e-03 2.515403075840463940e-03 -3.378497682294978599e-03 -8.503325927448211058e-03
-1.925483720053044676e-02 2.508730902584894226e-03 1.398143607214468766e-02 2.508730902584894226e-03 -1.207761350951302125e-02 1.795501171751962824e-03 1.398143607214468766e-02 1.795501171751962824e-03 -1.336475000447092006e-02
-5.189633834407278434e-03 -4.527578236897464303e-03 -3.568089763502808268e-03 -4.527578236897464303e-03 -4.423045442057170831e-04 1.079219342956474115e-04 -3.568089763502808268e-03 1.079219342956474115e-04 -1.403447017518731632e-03
-4.289096414706590303e-03 2.408667028278734142e-03 -1.660253910503198434e-03 2.408667028278734142e-03 -8.232207254038094446e-03 -1.432863250029019772e-03 -1.660253910503198434e-03 -1.432863250029019772e-03 8.526588031960376929e-03
4.218261527636941143e-03 -6.094209510512412897e-04 3.063469992184272763e-03 -6.094209510512412897e-04 -2.438189366444161801e-03 -8.040686546510365188e-04 3.063469992184272763e-03 -8.040686546510365188e-04 6.162990941079646420e-04
-1.393777671580913660e-02 4.903267154202628746e-04 -8.416500293998048499e-03 4.903267154202628746e-04 -9.449969375061800098e-03 -4.883556468383089093e-03 -8.416500293998048499e-03 -4.883556468383089093e-03 -1.433912447713080532e-02
-2.020976937226320880e-02 2.501883967073800698e-03 3.317212304187929992e-03 2.501883967073800698e-03 -9.292639654525661208e-03 -8.232987442678828694e-04 3.317212304187929992e-03 -8.232987442678828694e-04 3.836824180426837497e-03
-2.751744060401159313e-03 4.797086600953103137e-03 -8.280597674291068078e-03 4.797086600953103137e-03 -9.203142655169619171e-03 -7.403740540213979253e-03 -8.280597674291068078e-03 -7.403740540213979253e-03 -2.149585105217883055e-02
7.634320611851484403e-03 2.416456431667836444e-03 -6.363830221732318278e-03 2.416456431667836444e-03 1.590781544875729744e-02 4.312333553182253268e-03 -6.363830221732318278e-03 4.312333553182253268e-03 -9.853782532488193462e-04
-7.382581824277236783e-03 -7.267051490357136906e-04 -1.307468210935461977e-02 -7.267051490357136906e-04 -5.215779516135604123e-03 1.398984338493725488e-03 -1.307468210935461977e-02 1.398984338493725488e-03 -9.923506430933436845e-03
-8.364527247506818933e-03 -1.735869793563274031e-03 4.329079522166998442e-03 -1.735869793563274031e-03 -2.180928091595331006e-02 -3.329982431859486967e-03 4.329079522166998442e-03 -3.329982431859486967e-03 -2.478118796926087261e-02
-9.900918409406864185e-03 -6.341510585098160749e-03 -5.883808237878889250e-04 -6.341510585098160749e-03 1.076758315908138593e-02 -7.784622393111880444e-03 -5.883808237878889250e-04 -7.784622393111880444e-03 7.366041825093644704e-04
3.153634833016781634e-03 -6.375370772106076118e-03 -2.546442100723481095e-03 -6.375370772106076118e-03 -2.037840246582631881e-03 -4.481328654274668866e-03 -2.546442100723481095e-03 -4.481328654274668866e-03 2.351363732994000109e-04
-6.168982789840495029e-03 -2.401339496564947312e-03 -5.745646191868336410e-03 -2.401339496564947312e-03 8.299103748849311069e-03 9.512933719123709692e-03 -5.745646191868336410e-03 9.512933719123709692e-03 7.496214739423066355e-03
-2.440742143676648084e-04 6.038048411397716093e-03 2.824632403973223460e-03 6.038048411397716093e-03 -5.806482181318321431e-03 -1.849465259654349244e-03 2.824632403973223460e-03 -1.849465259654349244e-03 4.655260789085657533e-03
-7.508566685983189028e-03 -5.348349169969363878e-05 3.511860007787725654e-03 -5.348349169969363878e-05 9.288514016993451236e-03 1.644999662199539848e-03 3.511860007787725654e-03 1.644999662199539848e-03 2.753054777317594411e-03