-3.006027379799999835e+04
-3.005321903599999860e+04
-3.005891085000000021e+04
-3.005997873700000127e+04
-3.006325617200000124e+04
-3.005842543400000068e+04
-3.006543990100000156e+04
-3.005785734900000170e+04
-3.006192778700000054e+04
-3.006292695299999832e+04
-3.006373214999999982e+04
-3.006021937800000160e+04
-3.005650011399999858e+04
-3.006449998499999856e+04
-3.006198135700000057e+04
-3.006245396800000162e+04
-3.006767081799999869e+04
-3.005775373499999841e+04
-3.006040804800000114e+04
-3.006150912299999982e+04
-3.005882440800000040e+04
-3.006074814300000071e+04
-3.006441440399999919e+04
-3.006268017200000031e+04
-3.006462284000000000e+04
-3.006281272399999943e+04
-3.006346482000000105e+04
-3.006286585700000069e+04
-3.006161591000000044e+04
-3.006186510600000111e+04
-3.006039423600000009e+04
-3.006337518600000112e+04
-3.006380628000000070e+04
-3.006411193300000014e+04
-3.005600832000000082e+04
-3.006224347100000159e+04
-3.006654126299999916e+04
-3.006097136699999828e+04
-3.006190206699999908e+04
-3.006271750899999824e+04
-3.006086595300000045e+04
-3.005857215400000132e+04
-3.005744138300000122e+04
-3.006191483700000026e+04
-3.006230412000000069e+04
-3.006275447799999893e+04
-3.005646852299999955e+04
-3.006357501899999988e+04
-3.006133624899999995e+04
-3.006290637499999866e+04
-3.006061991900000066e+04
-3.006074716099999932e+04
-3.006231903999999849e+04
-3.006285392000000138e+04
-3.006257943800000066e+04
-3.006194381399999838e+04
-3.006271304199999940e+04
-3.006340724100000079e+04
-3.006359204600000157e+04
-3.005823418699999820e+04
-3.006545180299999993e+04
-3.006303777800000171e+04
-3.006029102100000091e+04
-3.006079095600000073e+04
-3.006485258800000156e+04
-3.006243393600000127e+04
-3.006051678900000115e+04
-3.006302823300000091e+04
-3.005955345300000045e+04
-3.005663453999999911e+04
-3.006128661400000055e+04
-3.005840323999999964e+04
-3.005992936299999928e+04
-3.006396156699999847e+04
-3.005670920699999988e+04
-3.006014796800000113e+04
-3.006272843099999955e+04
-3.006236565999999948e+04
-3.005956413500000053e+04
-3.006347955300000103e+04
-3.006349193100000048e+04
-3.005706891000000178e+04
-3.006460362299999906e+04
-3.006096457899999950e+04
-3.006105316999999923e+04
-3.006092089499999929e+04
-3.006336110600000029e+04
-3.006156538799999907e+04
-3.006300471699999980e+04
-3.006056986200000028e+04
-3.005353970900000058e+04
-3.006407795500000066e+04
-3.006308647299999939e+04
-3.006132956199999899e+04
-3.006054026099999828e+04
-3.005912421000000177e+04
-3.006415033200000107e+04
-3.006384543299999859e+04
-3.006370483500000046e+04
-3.005788939599999867e+04
-3.006052626900000178e+04
-3.006080276500000036e+04
-3.006272827799999868e+04
-3.006146167000000059e+04
-3.006093229000000065e+04
-3.006341433799999868e+04
-3.006032537299999967e+04
-3.006318593300000066e+04
-3.005982678899999883e+04
-3.006163965800000005e+04
-3.005750774799999999e+04
-3.006521742100000120e+04
-3.006304985400000078e+04
-3.006146349700000064e+04
-3.006034188400000130e+04
-3.006100902499999938e+04
-3.006224306799999977e+04
-3.006041507700000147e+04
-3.006143808100000024e+04
-3.006067075800000021e+04
-3.006376251699999921e+04
-3.005707988800000021e+04
-3.006554286000000138e+04
-3.006112357999999949e+04
-3.005953235299999869e+04
-3.005949436399999831e+04
-3.005985787300000084e+04
-3.006013364799999908e+04
-3.006399050200000056e+04
-3.006149207300000126e+04
-3.006474558099999922e+04
-3.006358646800000133e+04
-3.006048932900000000e+04
-3.006205875200000082e+04
-3.006168678599999839e+04
-3.006371386799999891e+04
-3.006360386799999833e+04
-3.005836586800000077e+04
-3.006223014300000068e+04
-3.005854070900000079e+04
-3.006025197299999854e+04
-3.006075583399999960e+04
-3.006193445300000167e+04
-3.005504267099999925e+04
-3.006281438300000082e+04
-3.005974931199999992e+04
-3.006082447300000058e+04
-3.005861966200000097e+04
-3.006136931700000059e+04
-3.006286909400000150e+04
-3.006069815599999856e+04
-3.006305276400000002e+04
-3.006168917100000181e+04
-3.006195460399999865e+04
-3.006025549300000057e+04
-3.006415987099999984e+04
-3.006247621799999979e+04
-3.006207269699999961e+04
-3.006241412000000128e+04
-3.005901335900000049e+04
-3.006160178499999893e+04
-3.006190167999999903e+04
-3.006188020400000096e+04
-3.006053602200000023e+04
-3.005823812700000053e+04
-3.006185846999999922e+04
-3.006016152000000147e+04
-3.006133817899999849e+04
-3.005708219900000040e+04
-3.006127934000000096e+04
-3.006340841300000102e+04
-3.006076494299999831e+04
-3.006341709800000172e+04
-3.006281892900000094e+04
-3.005637543100000039e+04
-3.006311698700000125e+04
-3.006335193799999979e+04
-3.006078810199999862e+04
-3.006279046100000051e+04
-3.006360833999999886e+04
-3.006137136599999940e+04
-3.006379316900000049e+04
-3.005966632400000162e+04
-3.006321643200000108e+04
-3.006299208400000134e+04
-3.006508907000000181e+04
-3.006286438500000077e+04
-3.006521344600000157e+04
-3.006042777099999876e+04
-3.006362898100000166e+04
-3.006254709599999842e+04
-3.006315759700000126e+04
-3.006447010900000168e+04
-3.006075094600000011e+04
-3.006166839299999992e+04
-3.006254919399999926e+04
-3.006235137400000167e+04
-3.006284202400000140e+04
-3.006119528400000127e+04
-3.006580178199999864e+04
-3.006162025899999935e+04
-3.006019055799999842e+04
-3.006005799000000115e+04
-3.005891020299999946e+04
-3.006097222300000067e+04
-3.006242209899999943e+04
-3.006250604999999996e+04
-3.006572842899999887e+04
-3.006424521000000095e+04
-3.005995001899999988e+04
-3.006136422899999889e+04
-3.005962057500000083e+04
-3.005122608499999842e+04
-3.006253532099999939e+04
-3.005891279199999917e+04
-3.005882161300000007e+04
-3.006148778799999855e+04
-3.005871402300000045e+04
-3.006245673600000009e+04
-3.006355345700000180e+04
-3.006052402200000142e+04
-3.006173627000000124e+04
-3.006317716300000029e+04
-3.005965694599999915e+04
-3.006268838400000095e+04
-3.006683661199999915e+04
-3.005894434499999988e+04
-3.006145987500000047e+04
-3.005941401000000042e+04
-3.006024269500000082e+04
-3.006165347900000052e+04
-3.006172886899999867e+04
-3.006401817099999971e+04
-3.005788758999999845e+04
-3.006252570500000002e+04
-3.006052718200000163e+04
-3.006442427799999859e+04
-3.006142661800000133e+04
-3.006547621100000106e+04
-3.006374479300000166e+04
-3.006151194300000134e+04
-3.005978893400000015e+04
-3.006323769199999879e+04
-3.006584435200000007e+04
-3.006066564500000095e+04
-3.006187434999999823e+04
-3.005955880800000159e+04
-3.005938782100000026e+04
-3.006109798900000169e+04
-3.006091860799999995e+04
-3.006629486199999883e+04
-3.006129241399999955e+04
-3.006469947099999990e+04
-3.005487205800000083e+04
-3.006151489999999831e+04
-3.006282281700000021e+04
-3.005997375399999873e+04
-3.006199087199999849e+04
-3.006381375599999956e+04
-3.005895512800000142e+04
-3.006593667199999982e+04
-3.005495344800000021e+04
-3.006147194999999920e+04
-3.006241746799999964e+04
-3.005886345599999913e+04
-3.005801094699999885e+04
-3.006121677400000044e+04
-3.006162628400000176e+04
-3.006387532700000156e+04
-3.006272562800000014e+04
-3.006194954800000050e+04
-3.006175519200000053e+04
-3.006367344299999968e+04
-3.005897508100000050e+04
-3.006273530899999969e+04
-3.006069352399999843e+04
-3.005910651900000084e+04
-3.006092986000000019e+04
-3.006001675600000090e+04
-3.006281295300000056e+04
-3.006211234699999841e+04
-3.005998864099999992e+04
-3.006057101999999941e+04
-3.006182484900000054e+04
-3.005827129100000093e+04
-3.006088877199999843e+04
-3.005854703900000095e+04
-3.006308436200000142e+04
-3.005657014599999820e+04
-3.006285138899999947e+04
-3.006526151000000027e+04
-3.006113217200000145e+04
-3.006052838999999949e+04
-3.006261533300000156e+04
-3.005953277499999967e+04
-3.005965601500000048e+04
-3.006021640800000023e+04
-3.006146831899999961e+04
-3.005771328999999969e+04
-3.006048885900000096e+04
-3.006157524800000101e+04
-3.006575129799999922e+04
-3.006036787199999890e+04
-3.006024365599999874e+04
-3.006506522899999982e+04
-3.006040721699999995e+04
-3.006265657099999953e+04
-3.006199137799999880e+04
-3.006595880699999907e+04
-3.006099601500000063e+04
-3.006504098299999896e+04
-3.006351963199999955e+04
-3.006477729900000122e+04
-3.005989649300000019e+04
-3.006065835199999856e+04
-3.005868740999999864e+04
-3.006083977400000003e+04
-3.006453033900000082e+04
-3.006076277800000025e+04
-3.006502871500000037e+04
-3.006644692399999985e+04
-3.006280412499999875e+04
-3.005812699900000007e+04
-3.006103978500000085e+04
-3.006001143600000069e+04
-3.006402454700000089e+04
-3.005834855199999947e+04
-3.006262375299999985e+04
-3.006226055800000177e+04
-3.006300086699999883e+04
-3.006052649100000053e+04
-3.006233588099999906e+04
-3.006052460100000098e+04
-3.006235499400000117e+04
-3.006260634999999820e+04
-3.006348822799999834e+04
-3.005780174199999965e+04
-3.005975558599999931e+04
-3.006219679399999950e+04
-3.006314305600000080e+04
-3.006117780900000071e+04
-3.006145235799999864e+04
-3.006276052200000049e+04
-3.006433721000000151e+04
-3.006186910300000091e+04
-3.005882505799999853e+04
-3.006391784600000028e+04
-3.006194868199999837e+04
-3.006130100999999922e+04
-3.006416431799999918e+04
-3.006406317199999830e+04
-3.006303345700000136e+04
-3.006141981799999849e+04
-3.005963043800000014e+04
-3.006105171200000041e+04
-3.006123580999999831e+04
-3.006575069799999983e+04
-3.005776818300000014e+04
-3.006289361400000053e+04
-3.006564121900000100e+04
-3.006212844200000109e+04
-3.005920033100000001e+04
-3.006034680600000138e+04
-3.005818344399999842e+04
-3.006004973299999983e+04
-3.006306002599999920e+04
-3.005723727800000052e+04
-3.006090512999999919e+04
-3.006627753899999880e+04
-3.005664499799999976e+04
-3.005978173700000116e+04
-3.005943632100000104e+04
-3.005681989600000088e+04
-3.006273432699999830e+04
-3.006018529499999931e+04
-3.005900037900000098e+04
-3.005744169500000135e+04
-3.006571141699999862e+04
-3.006041769399999976e+04
-3.006293058000000019e+04
-3.006147622100000081e+04
-3.006188491599999907e+04
-3.005581426500000089e+04
-3.006297904700000072e+04
-3.006401590700000088e+04
-3.006061652799999865e+04
-3.006119701200000054e+04
-3.006056552000000011e+04
-3.005834368199999881e+04
-3.005797071599999981e+04
-3.006615136100000018e+04
-3.005707065199999852e+04
-3.005875857399999950e+04
-3.006162823099999878e+04
-3.006422277400000166e+04
-3.006467703700000129e+04
-3.006044997399999920e+04
-3.006197064999999930e+04
-3.006090097299999979e+04
-3.006092173600000024e+04
-3.006227679999999964e+04
-3.006442391299999872e+04
-3.006323423299999922e+04
-3.006116167100000166e+04
-3.005894427200000064e+04
-3.006364272799999890e+04
-3.006315552499999831e+04
-3.006263897300000099e+04
-3.006057445699999880e+04
-3.006064333500000066e+04
-3.006498613200000182e+04
-3.006322764699999971e+04
-3.005924647900000127e+04
-3.006260352599999896e+04
-3.006581684500000119e+04
-3.006503198300000076e+04
-3.006087300300000061e+04
-3.006185292599999957e+04
-3.006057171599999856e+04
-3.006047870500000136e+04
-3.005983583100000033e+04
-3.005873165199999858e+04
-3.006350282000000152e+04
-3.005962448700000095e+04
-3.006201620700000058e+04
-3.006330055599999832e+04
-3.006152839400000084e+04
-3.006115858300000036e+04
-3.006085687699999835e+04
-3.006330090600000040e+04
-3.005674288600000000e+04
-3.005932776599999852e+04
-3.006102503000000070e+04
-3.006292881299999863e+04
-3.006214406999999846e+04
-3.006324176300000181e+04
-3.005943361799999911e+04
-3.006552184900000066e+04
-3.006575853400000051e+04
-3.006384051600000021e+04
-3.006011106799999834e+04
-3.005944937700000082e+04
-3.006511401800000021e+04
-3.006180877600000167e+04
-3.005936910100000023e+04
-3.005715418599999975e+04
-3.006129536000000007e+04
-3.006405280499999935e+04
-3.006169522199999847e+04
-3.006241805400000158e+04
-3.006244118700000035e+04
-3.006171008499999880e+04
-3.006455569200000173e+04
-3.006031675399999949e+04
-3.006365233000000080e+04
-3.006462355000000025e+04
-3.006354069700000036e+04
-3.005946511599999940e+04
-3.005890741200000048e+04
-3.006085266100000081e+04
-3.006356955599999856e+04
-3.006005048700000043e+04
-3.006249683300000106e+04
-3.006409333300000071e+04
-3.006311271000000124e+04
-3.006373254200000156e+04
-3.006462187199999971e+04
-3.006089910099999906e+04
-3.006625057499999821e+04
-3.006356358900000123e+04
-3.006257070000000022e+04
-3.006113891399999920e+04
-3.006143526399999973e+04
-3.006115079300000070e+04
-3.005908479799999986e+04
-3.006093169499999931e+04
-3.006212496000000101e+04
-3.005878687100000025e+04
-3.006129483800000162e+04
-3.006130719799999861e+04
-3.006125663200000054e+04
-3.006248271999999997e+04
-3.006232401599999866e+04
-3.005671650900000168e+04
-3.006270799800000168e+04
-3.005929272599999967e+04
-3.006337739399999919e+04
-3.006040472900000168e+04
-3.006086102799999935e+04
-3.006199358900000152e+04
-3.006415691599999991e+04
-3.006015101199999845e+04
-3.005936817599999995e+04
-3.006279364500000156e+04
-3.005914197899999999e+04
-3.006372291000000041e+04
-3.006392229099999895e+04
-3.006155239100000108e+04
-3.005705590500000108e+04
-3.006670842500000072e+04
-3.006297194400000080e+04
-3.006212029199999961e+04
-3.006422952300000179e+04
-3.006250512499999968e+04
-3.006167042600000059e+04
-3.006187252000000080e+04
-3.006209461799999917e+04
-3.005878289099999893e+04
-3.005486773600000015e+04
-3.006441899600000033e+04
-3.005964500200000111e+04
-3.005899321200000122e+04
-3.006553791999999885e+04
-3.006200691599999845e+04
-3.006305783399999927e+04
-3.006231443500000023e+04
-3.006059086200000093e+04
-3.005920529099999840e+04
-3.006323979300000065e+04
-3.005897543399999995e+04
-3.005773205199999938e+04
-3.006321008900000015e+04
-3.006586913400000049e+04
-3.006499888999999894e+04
-3.005937491199999931e+04
-3.006547207400000116e+04
-3.006224215199999890e+04
-3.006106062699999893e+04
-3.006222974199999953e+04
-3.005909385800000018e+04
-3.006294930799999929e+04
-3.006191641399999935e+04
-3.006132973700000002e+04
-3.006167145800000071e+04
-3.006162402300000031e+04
-3.006246984700000030e+04
-3.006250827900000149e+04
-3.006000261799999862e+04
-3.006136000399999830e+04
-3.006178249299999879e+04
-3.006010264900000038e+04
-3.006211788800000068e+04
-3.005718879799999922e+04
-3.006305687599999874e+04
-3.006213915999999881e+04
-3.006226129900000160e+04
-3.006248148199999923e+04
-3.006581762800000070e+04
-3.006264972299999863e+04
-3.006418390999999974e+04
-3.006074053500000082e+04
-3.006441130100000009e+04
-3.006260377499999959e+04
-3.005462082699999883e+04
-3.006219355599999835e+04
-3.006110715699999855e+04
-3.006256622699999934e+04
-3.006002792400000180e+04
-3.006391376799999853e+04
-3.005830393800000093e+04
-3.006267756899999949e+04
-3.006454913999999917e+04
-3.006227239700000064e+04
-3.006166558900000018e+04
-3.006024223500000153e+04
-3.006053434199999901e+04
-3.006265518000000156e+04
-3.006243190500000128e+04
-3.006173198200000115e+04
-3.006176744099999996e+04
-3.005991561599999841e+04
-3.006193379899999854e+04
-3.005924845400000049e+04
-3.006179187599999932e+04
-3.005841555000000153e+04
-3.006517835399999967e+04
-3.006425271799999973e+04
-3.006021888100000069e+04
-3.005900467299999946e+04
-3.005778991099999985e+04
-3.006202353999999832e+04
-3.006201385400000072e+04
-3.006158364699999947e+04
-3.005988605599999937e+04
-3.006395509200000015e+04
-3.006157537400000001e+04
-3.006318128200000137e+04
-3.006314835300000050e+04
-3.006184621300000072e+04
-3.006221135299999878e+04
-3.006375307800000155e+04
-3.006221494099999836e+04
-3.006288722699999926e+04
-3.006209811700000137e+04
-3.006513991299999907e+04
-3.006410620199999903e+04
-3.005826236399999834e+04
-3.006168705300000147e+04
-3.006082934000000023e+04
-3.005883228700000109e+04
-3.006420199700000012e+04
-3.006286952599999859e+04
-3.006359998600000108e+04
-3.006068828600000052e+04
-3.006302207800000178e+04
-3.006332263600000078e+04
-3.006232019299999956e+04
-3.005927697300000000e+04
-3.006452681799999846e+04
-3.006196829900000012e+04
-3.006186338600000090e+04
-3.006136649499999839e+04
-3.006027906300000177e+04
-3.005656134699999893e+04
-3.006278448299999945e+04
-3.006613422200000059e+04
-3.006557007900000099e+04
-3.005398813199999859e+04
-3.006130125599999883e+04
-3.006263735100000122e+04
-3.006374661199999900e+04
-3.006302893000000040e+04
-3.006214109900000039e+04
-3.005965582300000096e+04
-3.005937225599999874e+04
-3.005940323100000023e+04
-3.005956166999999914e+04
-3.006061492799999905e+04
-3.006023358200000075e+04
-3.006572763699999996e+04
-3.006277415900000051e+04
-3.005746817300000112e+04
-3.006283985200000097e+04
-3.006668113000000085e+04
-3.006012774999999965e+04
-3.006249890500000038e+04
-3.006107739600000059e+04
-3.006082973499999935e+04
-3.006252236500000072e+04
-3.005771248399999968e+04
-3.006168617900000027e+04
-3.006106983599999876e+04
-3.005847180700000172e+04
-3.006123803499999849e+04
-3.006286448599999858e+04
-3.006720899899999858e+04
-3.006133313099999941e+04
-3.006304776800000036e+04
-3.006292849800000113e+04
-3.006474984799999947e+04
-3.005791922600000180e+04
-3.006294038699999874e+04
-3.006443472800000018e+04
-3.006644612599999891e+04
-3.006053335700000025e+04
-3.006065184800000134e+04
-3.006015780900000027e+04
-3.005992530299999999e+04
-3.006289816300000166e+04
-3.005944331700000112e+04
-3.006361889499999961e+04
-3.006283758099999977e+04
-3.006101149300000179e+04
-3.006269788100000005e+04
-3.006057702900000004e+04
-3.006159437500000058e+04
-3.006169632300000012e+04
-3.006276056999999855e+04
-3.006357467199999883e+04
-3.006157829399999900e+04
-3.006064023499999894e+04
-3.005739262199999939e+04
-3.006365645099999892e+04
-3.005976998599999934e+04
-3.006180029600000125e+04
-3.005785892299999978e+04
-3.006418349500000113e+04
-3.006187674200000038e+04
-3.006500764599999820e+04
-3.006635652499999924e+04
-3.006264608500000031e+04
-3.006186373900000035e+04
-3.006366839600000094e+04
-3.005622713400000066e+04
-3.006434092099999907e+04
-3.006224250599999868e+04
-3.006627071900000010e+04
-3.006046521500000017e+04
-3.006180614799999967e+04
-3.006356141199999911e+04
-3.006650277799999822e+04
-3.005972607100000096e+04
-3.005994998000000123e+04
-3.006223193700000047e+04
-3.005973687000000064e+04
-3.006436914400000023e+04
-3.006190424799999892e+04
-3.006322437999999966e+04
-3.005827639899999849e+04
-3.005989731400000164e+04
-3.006415019499999835e+04
-3.006024012500000026e+04
-3.006080084100000022e+04
-3.005832461500000136e+04
-3.006261551999999938e+04
-3.006246003299999938e+04
-3.006067477199999848e+04
-3.005822392100000070e+04
-3.006483698799999911e+04
-3.006125532499999827e+04
-3.006322690299999886e+04
-3.006189295700000002e+04
-3.006070897899999909e+04
-3.006314567099999840e+04
-3.005999514899999849e+04
-3.005926479900000049e+04
-3.006256252899999890e+04
-3.006344009200000073e+04
-3.005875435500000094e+04
-3.005855897299999924e+04
-3.006100371299999824e+04
-3.006067250200000126e+04
-3.006463337300000057e+04
-3.006330882399999973e+04
-3.006212714799999958e+04
-3.006047934199999872e+04
-3.006163430199999857e+04
-3.006394727200000125e+04
-3.006014069000000018e+04
-3.006301237799999944e+04
-3.005967434599999979e+04
-3.006221490500000073e+04
-3.006469371799999863e+04
-3.006316576999999961e+04
-3.006189252199999828e+04
-3.006496736400000009e+04
-3.006455722199999946e+04
-3.006219393399999899e+04
-3.006123220700000093e+04
-3.005873858699999982e+04
-3.005892384099999981e+04
-3.005911780200000067e+04
-3.006183175100000153e+04
-3.006577540900000167e+04
-3.006351294200000120e+04
-3.006215765599999941e+04
-3.005881806299999880e+04
-3.005671167000000059e+04
-3.005946003299999938e+04
-3.006261237899999833e+04
-3.006076766599999974e+04
-3.005933982399999877e+04
-3.006259331100000054e+04
-3.006044206399999894e+04
-3.006206494599999860e+04
-3.005987384499999825e+04
-3.006114949899999920e+04
-3.006366001799999867e+04
-3.006598553399999946e+04
-3.006127581799999825e+04
-3.006243622500000129e+04
-3.006196870900000067e+04
-3.006324892000000182e+04
-3.006653238599999895e+04
-3.006440236999999979e+04
-3.005898174600000129e+04
-3.006371592600000076e+04
-3.006140029800000048e+04
-3.006003838199999882e+04
-3.006263142800000060e+04
-3.006003073399999994e+04
-3.005920703499999945e+04
-3.006213121300000057e+04
-3.006345442700000058e+04
-3.006120002200000090e+04
-3.006112732400000095e+04
-3.006303399799999897e+04
-3.006558727300000101e+04
-3.006027956199999971e+04
-3.005811650799999916e+04
-3.006135477900000114e+04
-3.006328651600000012e+04
-3.006442720199999894e+04
-3.006184844900000098e+04
-3.006191849100000036e+04
-3.006079973400000017e+04
-3.006055610299999898e+04
-3.006127726500000063e+04
-3.006094952800000101e+04
-3.005911145699999906e+04
-3.006303546899999856e+04
-3.006107805000000008e+04
-3.006287780099999873e+04
-3.006328567599999951e+04
-3.006275026599999910e+04
-3.006042255799999839e+04
-3.006050672199999826e+04
-3.006218095600000015e+04
-3.006036335500000132e+04
-3.006360103499999968e+04
-3.006230701899999985e+04
-3.006215119300000151e+04
-3.005914626900000076e+04
-3.006148572200000126e+04
-3.006320893699999942e+04
-3.006241985800000111e+04
-3.006220986300000004e+04
-3.006315069700000095e+04
-3.006180256599999848e+04
-3.005823044300000038e+04
-3.006242675600000075e+04
-3.006055664299999989e+04
-3.006131699799999842e+04
-3.006212619600000107e+04
-3.005695044899999994e+04
-3.006350272799999948e+04
-3.006120249899999908e+04
-3.005964723900000172e+04
-3.006123176400000011e+04
-3.006249065200000041e+04
-3.005962360600000102e+04
-3.006088451699999860e+04
-3.006320221699999820e+04
-3.006017920400000003e+04
-3.006254068900000129e+04
-3.006382154399999854e+04
-3.006632561599999826e+04
-3.006141728000000148e+04
-3.006185021799999959e+04
-3.006488746399999945e+04
-3.006539854199999900e+04
-3.006219244700000127e+04
-3.006275014799999917e+04
-3.006430271799999900e+04
-3.005837306000000171e+04
-3.006121752700000070e+04
-3.006157329100000061e+04
-3.006244865600000048e+04
-3.006037718600000153e+04
-3.006202751200000057e+04
-3.006146032099999866e+04
-3.006339822199999981e+04
-3.006366293500000029e+04
-3.006326468100000056e+04
-3.006246918599999844e+04
-3.006485349800000040e+04
-3.006319141999999920e+04
-3.006209847299999819e+04
-3.006131103900000016e+04
-3.006150333699999828e+04
-3.005872697500000140e+04
-3.006062636099999872e+04
-3.006084114899999986e+04
-3.006395169499999975e+04
-3.006017649299999903e+04
-3.005770273699999962e+04
-3.005887272200000007e+04
-3.006271212599999853e+04
-3.006328209799999968e+04
-3.006351337899999999e+04
-3.006258319599999959e+04
-3.005888704900000084e+04
-3.006299512300000060e+04
-3.006183408899999995e+04
-3.006197371700000076e+04
-3.006320889399999942e+04
-3.006285208300000158e+04
-3.006315237999999954e+04
-3.006418824699999823e+04
-3.006094366799999989e+04
-3.006155800499999896e+04
-3.006267308100000082e+04
-3.005957714800000031e+04
-3.005995139700000072e+04
-3.005623082200000135e+04
-3.006439274799999839e+04
-3.006146834899999885e+04
-3.006314645400000154e+04
-3.006137142699999822e+04
-3.006537764199999947e+04
-3.005999788899999839e+04
-3.006285866700000042e+04
-3.006565087599999970e+04
-3.006182349999999860e+04
-3.006336145499999839e+04
-3.006176947400000063e+04
-3.006304393699999855e+04
-3.006528847500000120e+04
-3.006262673400000131e+04
-3.005978748199999973e+04
-3.006309823600000163e+04
-3.006269442899999922e+04
-3.006394306299999880e+04
-3.006202325700000074e+04
-3.006303007100000104e+04
-3.006279943899999853e+04
-3.006323306900000171e+04
-3.005943761900000027e+04
-3.006386718000000110e+04
-3.006097721299999830e+04
-3.006102845399999933e+04
-3.006303227899999911e+04
-3.006215860299999986e+04
-3.005861427199999889e+04
-3.005829712500000096e+04
-3.006158637200000157e+04
-3.006111815700000079e+04
-3.006478196000000025e+04
-3.005558716600000116e+04
-3.006403354100000070e+04
-3.006133210200000030e+04
-3.006394284100000004e+04
-3.006245871299999999e+04
-3.006147042100000181e+04
-3.006158464200000162e+04
-3.006367916799999875e+04
-3.006159804300000178e+04
-3.005984351899999820e+04
-3.006089050399999905e+04
-3.006122575599999982e+04
-3.006217025300000023e+04
-3.006352637200000026e+04
-3.006135113700000147e+04
-3.006356067800000164e+04
-3.006205179599999974e+04
-3.005811249999999927e+04
-3.006072707000000082e+04
-3.006106318299999839e+04
-3.006339350199999899e+04
-3.005609594099999958e+04
-3.006154181600000084e+04
-3.005869808399999965e+04
-3.006229392300000109e+04
-3.006161705499999880e+04
-3.006000212900000042e+04
-3.006091120500000034e+04
-3.005614076099999875e+04
-3.006136653500000102e+04
-3.005665958999999930e+04
-3.006223321700000088e+04
-3.006085976200000005e+04
-3.006073861799999941e+04
-3.006214975200000117e+04
-3.005726498100000026e+04
-3.006079611899999873e+04
-3.006288935900000070e+04
-3.006397509699999864e+04
-3.006226332800000091e+04
-3.006217639699999927e+04
-3.006134926999999880e+04
-3.006038857300000018e+04
-3.006141561500000171e+04
-3.006255632500000138e+04
-3.006318203999999969e+04
-3.006050300699999934e+04
-3.006359436300000016e+04
-3.006331061699999918e+04
-3.006312162299999909e+04
-3.006652658000000156e+04
-3.005820388599999933e+04
-3.006235818300000028e+04
-3.005878647899999851e+04
-3.006412996800000110e+04
-3.006245688099999825e+04
-3.006423162999999840e+04
-3.006172415099999853e+04
-3.006013756500000090e+04
-3.006083257500000036e+04
-3.006086517000000094e+04
-3.005840989700000137e+04
-3.006178337900000042e+04
-3.005718005500000072e+04
-3.006490763700000025e+04
-3.005985038100000020e+04
-3.005849845199999982e+04
-3.006081126500000028e+04
-3.006672011099999872e+04
-3.006122512600000118e+04
-3.006341923999999926e+04
-3.006225228499999866e+04
-3.006276556200000050e+04
-3.006157802699999957e+04
-3.006330183300000135e+04
-3.006429687900000135e+04
-3.006042405299999882e+04
-3.005474803199999951e+04
-3.006143841199999952e+04
-3.006362257500000123e+04
-3.006247335799999928e+04
-3.006226374900000155e+04
-3.006389477099999931e+04
-3.006077674100000149e+04
-3.006334318200000052e+04
-3.006298267699999997e+04
-3.006039023499999894e+04
-3.006108437799999956e+04
-3.006224222300000110e+04
-3.006002685700000075e+04
-3.006135009699999864e+04
-3.006426876800000173e+04
-3.006446911399999954e+04
-3.006712498799999958e+04
-3.006300412100000176e+04
-3.006141858700000012e+04
-3.006170584099999905e+04
-3.006582197299999825e+04
-3.006042195500000162e+04
-3.006044786699999895e+04
-3.005866736699999819e+04
-3.006434634300000107e+04
-3.006203420499999993e+04
-3.006241461899999922e+04
-3.005992019900000014e+04
-3.005861644499999966e+04
-3.006239240699999937e+04
-3.006082246700000178e+04
-3.006051981499999965e+04
-3.006275719000000026e+04
-3.005824677900000097e+04
-3.006417611000000034e+04
-3.005901045700000032e+04
-3.006018579300000056e+04
-3.006146642000000065e+04
-3.006286711500000092e+04
-3.006233199199999945e+04
-3.006096155999999974e+04
-3.006303956299999845e+04
-3.006157613399999900e+04
-3.006200577100000010e+04
-3.006437416300000041e+04
-3.005933950299999924e+04
-3.006046441799999957e+04
-3.006372608799999944e+04
-3.005873686399999860e+04
-3.006234045600000172e+04
-3.006150906400000167e+04
-3.006212765299999955e+04
-3.006411923200000092e+04
-3.006366390999999931e+04
-3.006202807000000030e+04
-3.006336027499999909e+04
-3.006108660400000008e+04
-3.006111114799999996e+04
-3.006042790199999945e+04
-3.006305484000000069e+04
-3.006226475999999820e+04
-3.006100503599999865e+04
-3.006441025399999853e+04
-3.005956887600000118e+04
-3.005718954799999847e+04
-3.006279413700000077e+04
-3.006441591100000005e+04
-3.006209093999999823e+04
-3.006199664100000155e+04
-3.006141569900000104e+04
-3.006085512999999992e+04
-3.006048348700000133e+04
-3.006218842900000163e+04
-3.006188899600000150e+04
-3.005918225700000039e+04
-3.006220554300000003e+04
-3.006058915999999954e+04
-3.006448012000000017e+04
-3.006230911800000104e+04
-3.006101172700000097e+04
-3.006059924500000125e+04
-3.006123567399999956e+04
-3.006297702600000048e+04
-3.006090244600000005e+04
-3.005647730900000170e+04
-3.006228353399999833e+04
-3.005826678800000082e+04
-3.006146409299999868e+04
-3.006064418600000135e+04
-3.005901801999999952e+04
-3.006140680000000066e+04
-3.006710424799999964e+04
-3.006257331999999951e+04
-3.006440224200000011e+04
-3.006235453699999925e+04
-3.006272583099999974e+04
-3.006405046199999924e+04
-3.006312102099999902e+04
-3.006192554599999858e+04
-3.006050320500000089e+04
-3.006265032000000065e+04
-3.006431254199999967e+04
-3.005991625099999874e+04
-3.006582436400000006e+04
-3.006526541599999837e+04
-3.006314539099999820e+04
-3.006284378300000026e+04
-3.006141755900000135e+04
-3.006222713300000032e+04
-3.006567635499999960e+04
-3.006199789800000144e+04
-3.006028979800000161e+04
-3.006304066400000011e+04
-3.006397060899999997e+04
-3.006320539700000154e+04
-3.006291471599999932e+04
-3.006045673600000009e+04
-3.006053988899999968e+04
-3.006102710899999875e+04
-3.006074314700000104e+04
-3.006258101600000009e+04
-3.005982084799999939e+04
-3.006657180599999992e+04
-3.006185449000000153e+04
-3.006026267799999914e+04
-3.006200292099999933e+04
-3.005810796499999924e+04
-3.006535789099999965e+04
-3.006510652699999991e+04
-3.006027677599999879e+04
-3.005958817300000010e+04
-3.006394145199999912e+04
-3.006179439300000013e+04
-3.006581255299999975e+04
-3.006126978999999847e+04
-3.005933195100000012e+04
-3.006218698999999833e+04
-3.006021016400000008e+04
-3.006185146099999838e+04
-3.006672991499999989e+04
-3.006220122899999842e+04
-3.006445416299999852e+04
-3.006392013900000165e+04
-3.005975898999999845e+04
-3.006249231800000052e+04
-3.006364725800000087e+04
-3.006090775199999916e+04
-3.005753719600000113e+04
-3.005866542900000059e+04
-3.006454353400000036e+04
-3.006354841200000010e+04
-3.006001291000000128e+04
-3.005899127600000065e+04
-3.006270714299999963e+04
-3.006033455099999992e+04
-3.006069753000000128e+04
-3.006075044400000115e+04
-3.006194555000000037e+04
-3.006379955500000142e+04
-3.006397171600000001e+04
-3.006109634400000141e+04
-3.006244272199999978e+04
-3.006478001199999926e+04
-3.006473156400000153e+04
-3.005972308799999882e+04
-3.006378476099999898e+04
-3.006308886799999891e+04
-3.005988169299999936e+04