-5.214050000000000000e+04 -1.357410000000000036e+04 -3.449980000000000018e+03 -1.357410000000000036e+04 -6.004509999999999854e+04 -5.454760000000000218e+03 -3.449980000000000018e+03 -5.454760000000000218e+03 -2.604870000000000073e+04
-8.426069999999999709e+04 4.474880000000000109e+03 1.229089999999999964e+04 4.474880000000000109e+03 -4.603450000000000000e+04 1.109679999999999927e+04 1.229089999999999964e+04 1.109679999999999927e+04 -5.675180000000000291e+04
-4.450940000000000146e+04 5.160550000000000182e+03 -6.410380000000000109e+03 5.160550000000000182e+03 -5.521769999999999709e+04 3.361559999999999945e+03 -6.410380000000000109e+03 3.361559999999999945e+03 -3.908600000000000000e+04
-3.887059999999999854e+04 6.387869999999999891e+03 -4.313649999999999636e+03 6.387869999999999891e+03 -4.448409999999999854e+04 7.625930000000000291e+03 -4.313649999999999636e+03 7.625930000000000291e+03 -2.344120000000000073e+04
-2.011579999999999927e+04 4.087840000000000146e+03 -1.713720000000000073e+04 4.087840000000000146e+03 -2.522370000000000073e+04 5.493010000000000218e+03 -1.713720000000000073e+04 5.493010000000000218e+03 -3.964090000000000146e+04
-4.232390000000000146e+04 5.625560000000000400e+03 1.219970000000000027e+03 5.625560000000000400e+03 -4.417959999999999854e+04 -1.875630000000000109e+03 1.219970000000000027e+03 -1.875630000000000109e+03 -1.416250000000000000e+04
-1.157800000000000000e+04 -1.129640000000000100e+03 1.028200000000000000e+04 -1.129640000000000100e+03 -2.575079999999999927e+04 -1.540060000000000036e+04 1.028200000000000000e+04 -1.540060000000000036e+04 -2.724379999999999927e+04
-3.781440000000000146e+04 1.205990000000000009e+03 -1.277630000000000109e+03 1.205990000000000009e+03 -7.457269999999999709e+04 -6.103069999999999709e+03 -1.277630000000000109e+03 -6.103069999999999709e+03 -3.904059999999999854e+04
-2.658540000000000146e+04 -1.551550000000000000e+04 -1.309109999999999900e+03 -1.551550000000000000e+04 -3.158059999999999854e+04 -5.843869999999999891e+03 -1.309109999999999900e+03 -5.843869999999999891e+03 -3.773380000000000291e+04
-4.015450000000000000e+04 -3.089270000000000138e+01 -4.861479999999999563e+03 -3.089270000000000138e+01 -4.029140000000000146e+04 1.021560000000000036e+04 -4.861479999999999563e+03 1.021560000000000036e+04 -3.163559999999999854e+04
-3.350880000000000291e+04 3.034539999999999964e+03 -8.867670000000000528e+02 3.034539999999999964e+03 -2.345900000000000000e+04 9.472579999999999927e+03 -8.867670000000000528e+02 9.472579999999999927e+03 -2.686440000000000146e+04
-2.302050000000000000e+04 -9.000799999999999272e+03 -6.241789999999999736e+02 -9.000799999999999272e+03 -2.763379999999999927e+04 -8.674370000000000800e+03 -6.241789999999999736e+02 -8.674370000000000800e+03 -3.788409999999999854e+04
-6.821380000000000291e+04 -5.927130000000000109e+03 -2.283120000000000118e+02 -5.927130000000000109e+03 -4.574319999999999709e+04 -1.451069999999999936e+03 -2.283120000000000118e+02 -1.451069999999999936e+03 -5.705719999999999709e+04
-8.338819999999999709e+03 4.831029999999999745e+03 7.897489999999999782e+03 4.831029999999999745e+03 -3.479769999999999709e+04 1.632250000000000000e+04 7.897489999999999782e+03 1.632250000000000000e+04 -3.311459999999999854e+04
-5.404250000000000000e+04 -9.974950000000000728e+03 5.835769999999999982e+02 -9.974950000000000728e+03 -3.033790000000000146e+04 2.662800000000000182e+03 5.835769999999999982e+02 2.662800000000000182e+03 -1.965350000000000000e+04
-2.687570000000000073e+04 -2.665889999999999873e+03 -8.904450000000000500e+02 -2.665889999999999873e+03 -3.898050000000000000e+04 8.003409999999999854e+03 -8.904450000000000500e+02 8.003409999999999854e+03 -5.454659999999999854e+04
-1.813390000000000146e+04 -2.409629999999999939e+02 -1.112720000000000073e+04 -2.409629999999999939e+02 -2.242150000000000000e+04 1.442690000000000055e+03 -1.112720000000000073e+04 1.442690000000000055e+03 -7.496039999999999964e+03
-2.161879999999999927e+04 -1.121549999999999955e+03 1.453439999999999964e+04 -1.121549999999999955e+03 -4.497469999999999709e+04 -2.197789999999999964e+03 1.453439999999999964e+04 -2.197789999999999964e+03 -3.665340000000000146e+04
-4.131219999999999709e+04 -8.366469999999999345e+03 -3.122219999999999800e+03 -8.366469999999999345e+03 -4.056140000000000146e+04 9.013899999999999636e+03 -3.122219999999999800e+03 9.013899999999999636e+03 -3.744050000000000000e+04
-2.308119999999999891e+03 -5.488890000000000327e+03 2.124389999999999873e+03 -5.488890000000000327e+03 -2.938559999999999854e+04 -1.154000000000000000e+04 2.124389999999999873e+03 -1.154000000000000000e+04 -2.573150000000000000e+04
-5.353750000000000000e+04 8.381479999999999563e+03 -1.577939999999999964e+04 8.381479999999999563e+03 -3.099240000000000146e+04 -9.178069999999999709e+03 -1.577939999999999964e+04 -9.178069999999999709e+03 -5.594680000000000291e+04
-6.171330000000000291e+04 -9.812100000000000364e+02 8.854430000000000291e+03 -9.812100000000000364e+02 -4.568380000000000291e+04 1.080950000000000000e+04 8.854430000000000291e+03 1.080950000000000000e+04 -2.886609999999999854e+04
-2.041420000000000073e+04 5.164520000000000437e+03 7.840420000000000073e+03 5.164520000000000437e+03 -4.129950000000000000e+04 -1.500799999999999955e+03 7.840420000000000073e+03 -1.500799999999999955e+03 -3.503159999999999854e+04
-2.325320000000000073e+04 -1.246170000000000073e+04 1.415769999999999982e+03 -1.246170000000000073e+04 -3.118370000000000073e+04 -2.609700000000000273e+02 1.415769999999999982e+03 -2.609700000000000273e+02 -2.842970000000000073e+04
-1.384370000000000073e+04 5.137010000000000218e+02 -5.710140000000000327e+03 5.137010000000000218e+02 -5.321809999999999854e+04 4.014280000000000200e+03 -5.710140000000000327e+03 4.014280000000000200e+03 -3.002619999999999891e+03
-2.779940000000000146e+04 1.419370000000000073e+04 -3.544710000000000036e+03 1.419370000000000073e+04 -1.608079999999999927e+04 -1.183039999999999964e+03 -3.544710000000000036e+03 -1.183039999999999964e+03 -4.469269999999999709e+04
-2.061420000000000073e+03 -1.089570000000000073e+04 -3.171800000000000182e+03 -1.089570000000000073e+04 -3.235140000000000146e+04 -7.159600000000000364e+03 -3.171800000000000182e+03 -7.159600000000000364e+03 -2.284600000000000000e+04
-1.903770000000000073e+04 7.290670000000000073e+03 -4.383079999999999927e+03 7.290670000000000073e+03 -3.294000000000000000e+04 4.504449999999999818e+03 -4.383079999999999927e+03 4.504449999999999818e+03 -2.682470000000000073e+04
-6.592410000000000582e+04 6.630449999999999818e+03 -1.741509999999999854e+04 6.630449999999999818e+03 -4.987019999999999709e+04 -5.941689999999999827e+02 -1.741509999999999854e+04 -5.941689999999999827e+02 -4.300940000000000146e+04
-5.293830000000000291e+04 -3.530440000000000055e+03 1.684800000000000000e+04 -3.530440000000000055e+03 -2.937309999999999854e+04 1.498960000000000036e+04 1.684800000000000000e+04 1.498960000000000036e+04 -4.476500000000000000e+03
-3.859580000000000291e+04 -9.940819999999999709e+03 -2.046859999999999900e+03 -9.940819999999999709e+03 -3.985259999999999854e+04 7.407329999999999927e+03 -2.046859999999999900e+03 7.407329999999999927e+03 -1.300860000000000036e+04
-2.371059999999999854e+04 -2.451849999999999909e+03 -7.581800000000000182e+03 -2.451849999999999909e+03 -1.277000000000000000e+04 1.558019999999999982e+03 -7.581800000000000182e+03 1.558019999999999982e+03 -3.373750000000000000e+04
-2.799690000000000146e+04 -6.066730000000000018e+02 -8.373979999999999563e+03 -6.066730000000000018e+02 -2.424750000000000000e+04 -3.120900000000000091e+03 -8.373979999999999563e+03 -3.120900000000000091e+03 -1.457550000000000000e+04
-1.072810000000000036e+04 7.869399999999999636e+03 -2.772400000000000091e+03 7.869399999999999636e+03 -1.708590000000000146e+04 -7.474850000000000364e+03 -2.772400000000000091e+03 -7.474850000000000364e+03 -2.433150000000000000e+04
-4.633030000000000291e+04 -9.843290000000000873e+03 1.988309999999999945e+03 -9.843290000000000873e+03 -5.454500000000000000e+04 1.367120000000000073e+04 1.988309999999999945e+03 1.367120000000000073e+04 -6.401009999999999854e+04
-1.849779999999999927e+04 7.171810000000000400e+03 -4.002810000000000059e+02 7.171810000000000400e+03 -1.779259999999999854e+04 -5.648949999999999818e+03 -4.002810000000000059e+02 -5.648949999999999818e+03 -5.257199999999999818e+03
-2.937390000000000146e+04 -1.120850000000000000e+04 1.014620000000000073e+04 -1.120850000000000000e+04 -1.241410000000000036e+04 7.801869999999999891e+03 1.014620000000000073e+04 7.801869999999999891e+03 -4.303280000000000291e+04
-5.557180000000000291e+04 -7.196819999999999709e+03 7.844529999999999745e+03 -7.196819999999999709e+03 -6.231159999999999854e+04 -4.827939999999999600e+03 7.844529999999999745e+03 -4.827939999999999600e+03 -4.056209999999999854e+04
-1.708390000000000146e+04 3.727719999999999800e+03 9.504790000000000873e+03 3.727719999999999800e+03 -3.150729999999999927e+04 1.056689999999999964e+04 9.504790000000000873e+03 1.056689999999999964e+04 -1.304579999999999927e+04
-1.524850000000000000e+04 -1.029760000000000009e+00 -5.346789999999999964e+03 -1.029760000000000009e+00 -4.208519999999999709e+04 -2.764889999999999873e+03 -5.346789999999999964e+03 -2.764889999999999873e+03 -1.176920000000000073e+04
-3.119250000000000000e+04 -4.682449999999999818e+03 4.046940000000000055e+03 -4.682449999999999818e+03 -3.792859999999999854e+04 -4.024139999999999873e+03 4.046940000000000055e+03 -4.024139999999999873e+03 -2.678509999999999854e+04
-4.736690000000000146e+04 1.504029999999999973e+03 -2.033990000000000146e+04 1.504029999999999973e+03 -5.294080000000000291e+04 1.313910000000000036e+04 -2.033990000000000146e+04 1.313910000000000036e+04 -4.506390000000000146e+04
-3.487390000000000146e+04 5.967289999999999964e+03 -1.204760000000000036e+04 5.967289999999999964e+03 -5.493130000000000291e+04 4.885460000000000036e+03 -1.204760000000000036e+04 4.885460000000000036e+03 -3.617309999999999854e+04
-2.826220000000000073e+04 -8.259379999999999200e+03 -5.228069999999999709e+03 -8.259379999999999200e+03 -5.366569999999999709e+04 6.902010000000000218e+03 -5.228069999999999709e+03 6.902010000000000218e+03 -3.309619999999999709e+04
-2.834790000000000146e+04 -2.006790000000000146e+04 -2.074000000000000000e+04 -2.006790000000000146e+04 -2.631759999999999854e+04 6.397140000000000327e+03 -2.074000000000000000e+04 6.397140000000000327e+03 -3.276859999999999854e+04
-4.536810000000000400e+03 1.763680000000000064e+03 9.809010000000000218e+03 1.763680000000000064e+03 -1.734759999999999854e+04 1.218660000000000036e+04 9.809010000000000218e+03 1.218660000000000036e+04 -9.771649999999999636e+03
-5.989590000000000146e+04 8.905329999999999927e+03 -1.543500000000000000e+04 8.905329999999999927e+03 -5.861119999999999709e+04 4.242010000000000218e+03 -1.543500000000000000e+04 4.242010000000000218e+03 -4.350540000000000146e+04
-2.509559999999999854e+04 4.571229999999999563e+03 -7.328329999999999927e+03 4.571229999999999563e+03 -3.052120000000000073e+04 1.275210000000000036e+04 -7.328329999999999927e+03 1.275210000000000036e+04 -1.425889999999999964e+04
-4.785009999999999854e+04 8.665690000000000509e+03 8.342350000000000364e+03 8.665690000000000509e+03 -3.907719999999999709e+04 -1.244400000000000000e+04 8.342350000000000364e+03 -1.244400000000000000e+04 -3.800119999999999709e+04
-3.608569999999999709e+04 3.601789999999999964e+03 5.849750000000000000e+03 3.601789999999999964e+03 -2.666390000000000146e+04 1.100189999999999964e+04 5.849750000000000000e+03 1.100189999999999964e+04 -3.475990000000000146e+04
-1.570889999999999964e+04 -5.660859999999999673e+03 5.107300000000000182e+03 -5.660859999999999673e+03 -1.535629999999999927e+04 6.151760000000000218e+03 5.107300000000000182e+03 6.151760000000000218e+03 -1.965829999999999927e+04
-1.615110000000000036e+04 5.059489999999999782e+03 -4.866479999999999563e+03 5.059489999999999782e+03 -3.236700000000000000e+04 -1.378150000000000000e+04 -4.866479999999999563e+03 -1.378150000000000000e+04 -3.069000000000000000e+04
-3.846550000000000000e+04 1.195679999999999927e+04 -1.643240000000000146e+04 1.195679999999999927e+04 -2.329870000000000073e+04 5.339140000000000327e+03 -1.643240000000000146e+04 5.339140000000000327e+03 -2.913770000000000073e+04
-2.922870000000000073e+04 -3.630480000000000018e+03 -5.456240000000000236e+02 -3.630480000000000018e+03 -2.930450000000000000e+04 -6.704010000000000218e+03 -5.456240000000000236e+02 -6.704010000000000218e+03 -4.802059999999999854e+04
-2.248740000000000146e+04 -8.671870000000000800e+03 -5.178789999999999964e+03 -8.671870000000000800e+03 4.200670000000000073e+03 4.261869999999999891e+03 -5.178789999999999964e+03 4.261869999999999891e+03 -2.368750000000000000e+04
-5.363159999999999854e+04 -9.187340000000000146e+03 6.170890000000000327e+03 -9.187340000000000146e+03 -4.869859999999999854e+04 -8.650829999999999927e+03 6.170890000000000327e+03 -8.650829999999999927e+03 -5.193780000000000291e+04
-3.692309999999999854e+04 8.284979999999999563e+03 1.014129999999999927e+04 8.284979999999999563e+03 -2.031470000000000073e+04 -1.218020000000000073e+04 1.014129999999999927e+04 -1.218020000000000073e+04 -8.251430000000000291e+03
-4.265309999999999854e+04 -2.284730000000000018e+03 -5.932279999999999745e+03 -2.284730000000000018e+03 -3.192129999999999927e+04 -6.984100000000000364e+03 -5.932279999999999745e+03 -6.984100000000000364e+03 -4.619069999999999709e+04
-4.695580000000000291e+04 6.523800000000000182e+03 3.522210000000000036e+03 6.523800000000000182e+03 -3.172779999999999927e+04 1.532420000000000073e+03 3.522210000000000036e+03 1.532420000000000073e+03 -2.298779999999999927e+04
-6.394200000000000000e+04 -6.194279999999999745e+03 -2.295469999999999800e+03 -6.194279999999999745e+03 -6.229630000000000291e+04 -1.200389999999999964e+04 -2.295469999999999800e+03 -1.200389999999999964e+04 -6.672819999999999709e+04
-2.082609999999999854e+04 6.235760000000000218e+03 -1.092510000000000036e+04 6.235760000000000218e+03 -2.081829999999999927e+04 -9.424770000000000437e+03 -1.092510000000000036e+04 -9.424770000000000437e+03 -2.253829999999999927e+04
-3.406490000000000146e+04 3.284480000000000018e+03 1.430429999999999927e+04 3.284480000000000018e+03 -2.705670000000000073e+04 -4.626399999999999636e+03 1.430429999999999927e+04 -4.626399999999999636e+03 -4.365240000000000146e+04
-3.228959999999999854e+04 9.848880000000000337e+02 9.943030000000000655e+03 9.848880000000000337e+02 -5.919480000000000291e+04 7.514279999999999973e+02 9.943030000000000655e+03 7.514279999999999973e+02 -3.327850000000000000e+04
-4.899390000000000146e+04 -5.265579999999999927e+03 5.120680000000000291e+03 -5.265579999999999927e+03 -5.928859999999999854e+04 -5.635560000000000400e+03 5.120680000000000291e+03 -5.635560000000000400e+03 -5.665130000000000109e+03
-1.919800000000000000e+04 1.310229999999999927e+04 -7.797310000000000400e+03 1.310229999999999927e+04 2.722380000000000109e+03 -5.906239999999999782e+03 -7.797310000000000400e+03 -5.906239999999999782e+03 -1.427510000000000036e+04
-2.638120000000000073e+04 1.219529999999999973e+03 1.304760000000000036e+04 1.219529999999999973e+03 -4.708489999999999782e+03 2.465090000000000146e+03 1.304760000000000036e+04 2.465090000000000146e+03 -3.373669999999999709e+04
-2.226859999999999854e+04 1.070239999999999964e+04 -7.208289999999999864e+00 1.070239999999999964e+04 -1.604679999999999927e+04 -9.858299999999999272e+03 -7.208289999999999864e+00 -9.858299999999999272e+03 1.704940000000000146e+04
-1.403129999999999927e+04 -1.106109999999999900e+03 1.016210000000000036e+04 -1.106109999999999900e+03 -6.998520000000000437e+03 -3.647400000000000091e+03 1.016210000000000036e+04 -3.647400000000000091e+03 -1.456629999999999927e+04
-5.746690000000000146e+04 5.661600000000000364e+03 -3.616800000000000182e+03 5.661600000000000364e+03 -3.172879999999999927e+04 -2.546979999999999927e+04 -3.616800000000000182e+03 -2.546979999999999927e+04 -4.278180000000000291e+04
-3.944159999999999854e+04 6.701649999999999636e+03 -4.080779999999999745e+02 6.701649999999999636e+03 -6.005430000000000291e+04 -2.336079999999999927e+03 -4.080779999999999745e+02 -2.336079999999999927e+03 -3.095520000000000073e+04
-6.033490000000000146e+04 1.275320000000000073e+04 -7.188289999999999964e+03 1.275320000000000073e+04 -2.738209999999999854e+04 -1.724549999999999955e+03 -7.188289999999999964e+03 -1.724549999999999955e+03 -3.012259999999999854e+04
-2.482079999999999927e+04 -7.494270000000000437e+03 5.487720000000000255e+03 -7.494270000000000437e+03 -5.479800000000000000e+04 2.446229999999999927e+04 5.487720000000000255e+03 2.446229999999999927e+04 -5.228319999999999709e+04
-5.386650000000000000e+04 9.962600000000000364e+03 6.159119999999999891e+03 9.962600000000000364e+03 -3.954090000000000146e+04 2.031710000000000036e+03 6.159119999999999891e+03 2.031710000000000036e+03 -4.499500000000000000e+04
-2.776470000000000073e+04 1.219600000000000000e+04 -3.155320000000000164e+03 1.219600000000000000e+04 -1.997829999999999927e+04 2.645000000000000000e+02 -3.155320000000000164e+03 2.645000000000000000e+02 -2.011070000000000073e+04
-5.590880000000000291e+04 7.843800000000000182e+03 -1.358350000000000000e+04 7.843800000000000182e+03 -6.554489999999999418e+04 1.981690000000000055e+03 -1.358350000000000000e+04 1.981690000000000055e+03 -7.535489999999999418e+04
-2.832340000000000146e+04 -1.128470000000000073e+04 -1.644369999999999891e+03 -1.128470000000000073e+04 -5.450700000000000000e+04 4.152560000000000400e+03 -1.644369999999999891e+03 4.152560000000000400e+03 -4.119330000000000291e+04
-9.601889999999999418e+03 3.133399999999999963e+01 -5.069189999999999600e+03 3.133399999999999963e+01 -4.223470000000000255e+03 -9.083920000000000528e+02 -5.069189999999999600e+03 -9.083920000000000528e+02 -1.866390000000000146e+04
-3.411459999999999854e+04 2.331179999999999927e+04 -9.421379999999999200e+03 2.331179999999999927e+04 -2.689859999999999854e+04 2.834619999999999891e+03 -9.421379999999999200e+03 2.834619999999999891e+03 -3.877340000000000146e+04
-2.406440000000000146e+04 -1.067360000000000036e+04 -1.498150000000000091e+03 -1.067360000000000036e+04 -4.043069999999999709e+04 7.086930000000000291e+03 -1.498150000000000091e+03 7.086930000000000291e+03 -6.762260000000000582e+04
-3.299750000000000000e+04 5.229100000000000364e+03 -5.740739999999999782e+03 5.229100000000000364e+03 -2.053820000000000073e+04 1.595529999999999973e+03 -5.740739999999999782e+03 1.595529999999999973e+03 -4.097530000000000291e+04
-2.899590000000000146e+04 -6.800800000000000409e+02 1.518479999999999927e+04 -6.800800000000000409e+02 -1.630529999999999927e+04 1.100310000000000036e+04 1.518479999999999927e+04 1.100310000000000036e+04 -2.791070000000000073e+04
-3.924150000000000000e+04 1.181160000000000036e+04 -6.608090000000000146e+03 1.181160000000000036e+04 -2.430679999999999927e+04 9.365629999999999200e+03 -6.608090000000000146e+03 9.365629999999999200e+03 -7.822450000000000000e+04
6.219729999999999563e+02 2.252659999999999854e+03 3.544710000000000036e+03 2.252659999999999854e+03 -2.792849999999999909e+03 -1.023870000000000005e+02 3.544710000000000036e+03 -1.023870000000000005e+02 -3.073340000000000146e+04
-2.520579999999999927e+04 -1.141879999999999927e+04 -2.130420000000000073e+03 -1.141879999999999927e+04 -4.808050000000000000e+04 -5.747220000000000255e+03 -2.130420000000000073e+03 -5.747220000000000255e+03 -3.894359999999999854e+04
-1.966540000000000146e+04 -8.816479999999999563e+03 7.085159999999999854e+03 -8.816479999999999563e+03 -3.018540000000000146e+04 8.019300000000000182e+03 7.085159999999999854e+03 8.019300000000000182e+03 -4.378300000000000000e+04
-4.998350000000000000e+04 1.016029999999999927e+04 9.629540000000000873e+03 1.016029999999999927e+04 -4.357790000000000146e+04 3.385980000000000018e+03 9.629540000000000873e+03 3.385980000000000018e+03 -3.469319999999999709e+04
-2.729490000000000146e+04 -8.743659999999999854e+03 1.446379999999999927e+04 -8.743659999999999854e+03 -4.364609999999999854e+04 1.016659999999999968e+03 1.446379999999999927e+04 1.016659999999999968e+03 -3.070470000000000073e+04
-3.840919999999999709e+04 3.660190000000000055e+03 -8.083000000000000000e+03 3.660190000000000055e+03 8.402809999999999491e+03 8.979470000000000027e+02 -8.083000000000000000e+03 8.979470000000000027e+02 -2.414590000000000146e+04
-2.581440000000000146e+04 4.056940000000000055e+03 -1.787229999999999927e+04 4.056940000000000055e+03 3.159879999999999995e+02 4.603010000000000218e+03 -1.787229999999999927e+04 4.603010000000000218e+03 -1.780520000000000073e+04
-5.168859999999999854e+04 -5.219389999999999645e+02 4.417800000000000182e+03 -5.219389999999999645e+02 -4.344530000000000291e+04 -7.697279999999999745e+03 4.417800000000000182e+03 -7.697279999999999745e+03 -2.981279999999999927e+04
-8.687100000000000000e+04 -2.309449999999999818e+03 -5.951250000000000000e+03 -2.309449999999999818e+03 -5.976950000000000000e+04 -1.330189999999999964e+04 -5.951250000000000000e+03 -1.330189999999999964e+04 -4.210580000000000291e+04
-2.154009999999999854e+04 -2.767539999999999964e+03 -6.435969999999999800e+02 -2.767539999999999964e+03 -2.529629999999999927e+04 4.827050000000000182e+03 -6.435969999999999800e+02 4.827050000000000182e+03 -2.262479999999999927e+04
-1.930940000000000146e+04 -1.035200000000000045e+03 1.921079999999999927e+03 -1.035200000000000045e+03 -2.593690000000000146e+04 -4.558439999999999600e+03 1.921079999999999927e+03 -4.558439999999999600e+03 -2.868829999999999927e+04
-3.022140000000000146e+04 5.965819999999999709e+03 -1.173889999999999964e+04 5.965819999999999709e+03 -4.521319999999999709e+04 7.439250000000000000e+03 -1.173889999999999964e+04 7.439250000000000000e+03 -5.750890000000000146e+04
-5.561390000000000146e+04 -7.370109999999999673e+02 8.754399999999999636e+03 -7.370109999999999673e+02 -3.548359999999999854e+04 1.013839999999999964e+04 8.754399999999999636e+03 1.013839999999999964e+04 -4.963319999999999709e+04
-3.028759999999999854e+04 2.567920000000000073e+03 1.418810000000000036e+04 2.567920000000000073e+03 -2.710109999999999854e+04 -1.118019999999999925e+01 1.418810000000000036e+04 -1.118019999999999925e+01 -2.148500000000000000e+04
-2.736059999999999945e+03 5.045359999999999673e+03 -1.071390000000000100e+03 5.045359999999999673e+03 -4.753409999999999854e+04 -1.145770000000000073e+04 -1.071390000000000100e+03 -1.145770000000000073e+04 -9.486260000000000218e+03
-2.260309999999999854e+04 -6.680760000000000218e+03 -6.524829999999999927e+03 -6.680760000000000218e+03 -5.366540000000000146e+04 -1.024019999999999982e+03 -6.524829999999999927e+03 -1.024019999999999982e+03 -2.591750000000000000e+04
-3.361209999999999854e+04 -6.006130000000000109e+03 -1.282870000000000073e+04 -6.006130000000000109e+03 -4.310780000000000291e+04 -3.212250000000000000e+03 -1.282870000000000073e+04 -3.212250000000000000e+03 -3.102679999999999927e+04
-6.631860000000000582e+04 6.572930000000000291e+03 -1.469309999999999945e+03 6.572930000000000291e+03 -5.622790000000000146e+04 1.780599999999999909e+03 -1.469309999999999945e+03 1.780599999999999909e+03 -4.472009999999999854e+04
-3.621080000000000291e+04 1.765299999999999955e+03 2.587340000000000146e+03 1.765299999999999955e+03 -3.860409999999999854e+04 4.504590000000000146e+03 2.587340000000000146e+03 4.504590000000000146e+03 -5.874890000000000146e+04
-2.889979999999999927e+04 1.624910000000000036e+04 1.114950000000000000e+04 1.624910000000000036e+04 -3.492240000000000146e+04 -1.403689999999999964e+04 1.114950000000000000e+04 -1.403689999999999964e+04 -3.480130000000000291e+04
-3.507050000000000000e+04 4.391170000000000073e+03 -1.071770000000000073e+04 4.391170000000000073e+03 -2.314140000000000146e+04 -1.632309999999999945e+03 -1.071770000000000073e+04 -1.632309999999999945e+03 -3.052270000000000073e+04
-1.383070000000000073e+04 7.480439999999999827e+02 -5.335609999999999673e+03 7.480439999999999827e+02 -3.520659999999999854e+04 1.444450000000000045e+03 -5.335609999999999673e+03 1.444450000000000045e+03 -4.078169999999999709e+04
-5.574480000000000291e+04 1.603620000000000073e+04 -6.549689999999999600e+03 1.603620000000000073e+04 -1.069829999999999927e+04 5.971109999999999900e+02 -6.549689999999999600e+03 5.971109999999999900e+02 -3.643419999999999709e+04
-3.523280000000000291e+04 3.080739999999999782e+03 3.480869999999999891e+03 3.080739999999999782e+03 -2.133759999999999854e+04 -1.550429999999999927e+04 3.480869999999999891e+03 -1.550429999999999927e+04 -1.489410000000000036e+04
-3.772080000000000291e+04 1.097029999999999927e+04 -1.902640000000000146e+04 1.097029999999999927e+04 -4.445650000000000000e+04 -1.174879999999999927e+04 -1.902640000000000146e+04 -1.174879999999999927e+04 -4.029050000000000000e+04
-1.418620000000000073e+04 3.786559999999999945e+03 9.161440000000000509e+03 3.786559999999999945e+03 -5.318259999999999854e+04 1.751170000000000073e+03 9.161440000000000509e+03 1.751170000000000073e+03 -3.527690000000000146e+04
-3.887550000000000000e+04 -1.424739999999999964e+04 -5.000199999999999818e+03 -1.424739999999999964e+04 -5.950810000000000400e+03 -5.351489999999999782e+03 -5.000199999999999818e+03 -5.351489999999999782e+03 -1.525170000000000073e+04
-2.646940000000000146e+04 -3.481159999999999854e+03 2.729440000000000055e+03 -3.481159999999999854e+03 -3.605680000000000291e+04 -2.580269999999999868e+02 2.729440000000000055e+03 -2.580269999999999868e+02 -3.362640000000000146e+04
-4.029830000000000291e+04 2.623230000000000018e+03 -8.232309999999999491e+03 2.623230000000000018e+03 -4.807869999999999709e+04 1.018589999999999964e+04 -8.232309999999999491e+03 1.018589999999999964e+04 -5.982959999999999854e+04
-4.200550000000000000e+04 1.197309999999999945e+03 3.152520000000000095e+02 1.197309999999999945e+03 -2.124209999999999854e+04 -2.318719999999999800e+03 3.152520000000000095e+02 -2.318719999999999800e+03 -2.391980000000000018e+03
2.619849999999999909e+03 3.053809999999999945e+03 7.921770000000000437e+03 3.053809999999999945e+03 -6.674000000000000000e+03 -2.643239999999999782e+03 7.921770000000000437e+03 -2.643239999999999782e+03 -1.723150000000000000e+04
-2.206659999999999854e+04 -1.290900000000000000e+04 1.661140000000000100e+03 -1.290900000000000000e+04 -4.233680000000000291e+04 6.644430000000000291e+03 1.661140000000000100e+03 6.644430000000000291e+03 -3.541330000000000291e+04
-3.064859999999999854e+04 -6.188539999999999964e+03 -1.498589999999999918e+03 -6.188539999999999964e+03 -5.185369999999999709e+04 2.690609999999999786e+02 -1.498589999999999918e+03 2.690609999999999786e+02 -5.010290000000000146e+04
-1.738200000000000000e+04 1.057929999999999927e+04 3.325820000000000164e+03 1.057929999999999927e+04 -4.465100000000000000e+04 1.512269999999999982e+03 3.325820000000000164e+03 1.512269999999999982e+03 -2.558590000000000146e+04
-2.665420000000000073e+04 -5.881229999999999563e+03 6.149109999999999445e+02 -5.881229999999999563e+03 -5.641750000000000000e+04 -4.358369999999999891e+03 6.149109999999999445e+02 -4.358369999999999891e+03 -3.066420000000000073e+04
-2.994940000000000146e+04 1.914890000000000146e+04 -1.603619999999999891e+03 1.914890000000000146e+04 -4.824390000000000146e+04 5.644680000000000291e+03 -1.603619999999999891e+03 5.644680000000000291e+03 -5.689869999999999709e+04
-1.616389999999999964e+04 -9.437709999999999127e+03 -7.422779999999999745e+03 -9.437709999999999127e+03 -4.462840000000000146e+04 -9.922430000000000518e+02 -7.422779999999999745e+03 -9.922430000000000518e+02 -1.524970000000000073e+04
-5.112440000000000146e+04 1.726609999999999900e+03 -9.242940000000000509e+03 1.726609999999999900e+03 -3.676980000000000291e+04 2.879199999999999818e+03 -9.242940000000000509e+03 2.879199999999999818e+03 -2.663420000000000073e+04
-3.541209999999999854e+04 6.721659999999999854e+03 -2.605579999999999927e+03 6.721659999999999854e+03 -4.706709999999999854e+04 5.705579999999999927e+03 -2.605579999999999927e+03 5.705579999999999927e+03 -2.381029999999999927e+04
-7.009800000000000000e+04 -4.343810000000000400e+03 -6.314760000000000218e+03 -4.343810000000000400e+03 -4.281209999999999854e+04 -2.588070000000000164e+03 -6.314760000000000218e+03 -2.588070000000000164e+03 -4.159050000000000000e+04
-1.263920000000000073e+04 5.472420000000000073e+03 -4.200079999999999927e+03 5.472420000000000073e+03 -1.089570000000000073e+04 -1.067720000000000073e+04 -4.200079999999999927e+03 -1.067720000000000073e+04 -2.158190000000000146e+04
-4.208269999999999709e+04 -1.698799999999999955e+03 8.654360000000000582e+03 -1.698799999999999955e+03 -1.800929999999999927e+04 1.004450000000000045e+03 8.654360000000000582e+03 1.004450000000000045e+03 -4.508619999999999709e+04
-5.051390000000000146e+04 4.176100000000000364e+03 7.487359999999999673e+03 4.176100000000000364e+03 -5.136219999999999709e+04 4.460460000000000036e+03 7.487359999999999673e+03 4.460460000000000036e+03 -3.624540000000000146e+04
-5.118700000000000000e+04 -7.007489999999999782e+03 1.236910000000000036e+04 -7.007489999999999782e+03 -2.817809999999999854e+04 -1.616720000000000027e+03 1.236910000000000036e+04 -1.616720000000000027e+03 -3.086609999999999854e+04
-4.330609999999999854e+04 -2.084960000000000036e+03 3.780380000000000109e+03 -2.084960000000000036e+03 -4.755240000000000146e+04 9.281930000000000291e+03 3.780380000000000109e+03 9.281930000000000291e+03 -1.055489999999999964e+04
-4.677800000000000000e+04 -2.966289999999999964e+03 -4.339390000000000327e+03 -2.966289999999999964e+03 -3.112600000000000000e+04 -3.995750000000000000e+03 -4.339390000000000327e+03 -3.995750000000000000e+03 -5.763690000000000146e+04
-3.106909999999999854e+04 1.017520000000000073e+04 2.823000000000000000e+03 1.017520000000000073e+04 -4.784640000000000146e+04 -2.853900000000000148e+01 2.823000000000000000e+03 -2.853900000000000148e+01 -1.659409999999999854e+04