-3.021439819999999963e+04
-3.021375739999999860e+04
-3.021489319999999861e+04
-3.021676390000000174e+04
-3.021624260000000140e+04
-3.021327649999999994e+04
-3.021377830000000176e+04
-3.021589099999999962e+04
-3.021104320000000007e+04
-3.021609869999999864e+04
-3.021782930000000124e+04
-3.021546779999999853e+04
-3.021622929999999906e+04
-3.021261969999999928e+04
-3.021319009999999980e+04
-3.021769859999999971e+04
-3.021353830000000016e+04
-3.021410299999999916e+04
-3.021821730000000025e+04
-3.021703269999999975e+04
-3.021233889999999883e+04
-3.021773979999999938e+04
-3.021608120000000054e+04
-3.021088560000000143e+04
-3.021367689999999857e+04
-3.021586439999999857e+04
-3.021771359999999913e+04
-3.021805189999999857e+04
-3.021070939999999973e+04
-3.021573630000000048e+04
-3.021657990000000063e+04
-3.021360599999999977e+04
-3.021479910000000018e+04
-3.021542610000000059e+04
-3.021679729999999836e+04
-3.021498189999999886e+04
-3.021152100000000064e+04
-3.021309360000000015e+04
-3.021401770000000033e+04
-3.021437860000000001e+04
-3.021144940000000133e+04
-3.021812649999999849e+04
-3.021105069999999978e+04
-3.021676099999999860e+04
-3.020867399999999907e+04
-3.021236400000000140e+04
-3.021032839999999851e+04
-3.021272230000000127e+04
-3.021240279999999984e+04
-3.021485039999999935e+04
-3.021209879999999976e+04
-3.021627539999999863e+04
-3.021039549999999872e+04
-3.021538680000000022e+04
-3.021111000000000058e+04
-3.021394199999999910e+04
-3.021728470000000016e+04
-3.021661950000000070e+04
-3.021270500000000175e+04
-3.021373170000000027e+04
-3.021352219999999943e+04
-3.021675370000000112e+04
-3.021547529999999824e+04
-3.021488750000000073e+04
-3.021202500000000146e+04
-3.021395230000000083e+04
-3.021416709999999875e+04
-3.021291110000000117e+04
-3.021453989999999976e+04
-3.021390959999999905e+04
-3.021757319999999891e+04
-3.021814570000000094e+04
-3.021840239999999903e+04
-3.021328120000000126e+04
-3.021504170000000158e+04
-3.021293899999999849e+04
-3.021539740000000165e+04
-3.021432430000000022e+04
-3.021443470000000161e+04
-3.021403689999999915e+04
-3.021493509999999878e+04
-3.021507229999999981e+04
-3.021215880000000107e+04
-3.021061479999999938e+04
-3.021465120000000024e+04
-3.021818330000000060e+04
-3.021492750000000160e+04
-3.021935020000000077e+04
-3.021645809999999983e+04
-3.021740940000000046e+04
-3.021582609999999841e+04
-3.021379260000000068e+04
-3.021707310000000143e+04
-3.021269719999999870e+04
-3.021109679999999935e+04
-3.021317429999999877e+04
-3.021606399999999849e+04
-3.020957709999999861e+04
-3.021393370000000141e+04
-3.021005879999999888e+04
-3.021319830000000002e+04
-3.021546189999999842e+04
-3.021429959999999846e+04
-3.021597829999999885e+04
-3.021671180000000095e+04
-3.021517020000000048e+04
-3.021139370000000054e+04
-3.021078059999999823e+04
-3.021554769999999917e+04
-3.020990889999999854e+04
-3.021629969999999958e+04
-3.021280900000000111e+04
-3.020970140000000174e+04
-3.021338650000000052e+04
-3.021515620000000126e+04
-3.021214990000000034e+04
-3.021555470000000059e+04
-3.021741270000000077e+04
-3.021490230000000156e+04
-3.021855180000000109e+04
-3.021720479999999952e+04
-3.021324510000000009e+04
-3.021418549999999959e+04
-3.021505919999999969e+04
-3.021183060000000114e+04
-3.021660099999999875e+04
-3.021471789999999964e+04
-3.020904920000000129e+04
-3.021418219999999928e+04
-3.021282249999999840e+04
-3.021824399999999878e+04
-3.021380289999999877e+04
-3.021497479999999996e+04
-3.021553250000000116e+04
-3.021931750000000102e+04
-3.021746020000000135e+04
-3.021425660000000062e+04
-3.021172889999999825e+04
-3.021328640000000087e+04
-3.021316180000000168e+04
-3.021413980000000083e+04
-3.021396089999999822e+04
-3.021473449999999866e+04
-3.021527760000000126e+04
-3.021557400000000052e+04
-3.021489119999999821e+04
-3.021728770000000077e+04
-3.021699250000000029e+04
-3.021188530000000173e+04
-3.021544069999999920e+04
-3.021807760000000053e+04
-3.021376729999999952e+04
-3.021247810000000027e+04
-3.021391449999999895e+04
-3.021276529999999912e+04
-3.021482879999999932e+04
-3.021791549999999916e+04
-3.021478210000000036e+04
-3.021438910000000033e+04
-3.021613249999999971e+04
-3.021678450000000157e+04
-3.021095019999999931e+04
-3.021430219999999827e+04
-3.020934560000000056e+04
-3.021404799999999886e+04
-3.021225379999999859e+04
-3.021496229999999923e+04
-3.021619020000000091e+04
-3.021215039999999863e+04
-3.021533970000000045e+04
-3.021445509999999922e+04
-3.021597750000000087e+04
-3.021386179999999877e+04
-3.021820650000000023e+04
-3.021414779999999882e+04
-3.021435659999999916e+04
-3.021286439999999857e+04
-3.021521819999999934e+04
-3.021373400000000038e+04
-3.021345890000000145e+04
-3.021209709999999905e+04
-3.021524919999999838e+04
-3.021275110000000132e+04
-3.021516509999999835e+04
-3.021512050000000090e+04
-3.021110450000000128e+04
-3.021851469999999972e+04
-3.021296900000000096e+04
-3.021780549999999857e+04
-3.021075300000000061e+04
-3.021519830000000002e+04
-3.021241949999999997e+04
-3.021203250000000116e+04
-3.021116489999999976e+04
-3.021885780000000159e+04
-3.021260550000000148e+04
-3.021495769999999902e+04
-3.021098979999999938e+04
-3.021452600000000166e+04
-3.021607719999999972e+04
-3.021116180000000168e+04
-3.021285009999999966e+04
-3.021774510000000009e+04
-3.021117180000000008e+04
-3.021646150000000125e+04
-3.021323700000000099e+04
-3.021452140000000145e+04
-3.021508280000000013e+04
-3.021283620000000155e+04
-3.021542130000000179e+04
-3.021663009999999849e+04
-3.021183290000000125e+04
-3.021302720000000045e+04
-3.021458580000000075e+04
-3.021250409999999829e+04
-3.021540599999999904e+04
-3.021128240000000005e+04
-3.021289259999999922e+04
-3.021550979999999981e+04
-3.021817589999999836e+04
-3.021390330000000176e+04
-3.021202339999999822e+04
-3.021863070000000153e+04
-3.021729630000000179e+04
-3.021084130000000005e+04
-3.021327909999999974e+04
-3.021540740000000005e+04
-3.021681239999999889e+04
-3.021537900000000081e+04
-3.021309130000000005e+04
-3.020916110000000117e+04
-3.021717150000000038e+04
-3.021075240000000122e+04
-3.021805770000000120e+04
-3.021988780000000042e+04
-3.021084490000000005e+04
-3.021486779999999999e+04
-3.021646580000000176e+04
-3.021214860000000044e+04
-3.021666319999999905e+04
-3.021815680000000066e+04
-3.021390120000000024e+04
-3.021100259999999980e+04
-3.021322859999999855e+04
-3.021002520000000004e+04
-3.021397999999999956e+04
-3.021743270000000120e+04
-3.021470579999999973e+04
-3.021225769999999829e+04
-3.021622950000000128e+04
-3.020887800000000061e+04
-3.021687459999999919e+04
-3.021629660000000149e+04
-3.021331460000000152e+04
-3.021853900000000067e+04
-3.021114749999999913e+04
-3.021229910000000018e+04
-3.021692629999999917e+04
-3.021417280000000028e+04
-3.021639489999999932e+04
-3.021282389999999941e+04
-3.021409820000000036e+04
-3.021233309999999983e+04
-3.021367469999999958e+04
-3.021254550000000017e+04
-3.021722379999999976e+04
-3.021537099999999919e+04
-3.021437659999999960e+04
-3.021728779999999824e+04
-3.021425749999999971e+04
-3.021509080000000176e+04
-3.021380510000000140e+04
-3.021014199999999983e+04
-3.021519389999999839e+04
-3.021554330000000118e+04
-3.021345890000000145e+04
-3.021202860000000146e+04
-3.021322100000000137e+04
-3.021358160000000134e+04
-3.021717650000000140e+04
-3.021470760000000155e+04
-3.021347439999999915e+04
-3.021591400000000067e+04
-3.021232370000000083e+04
-3.021529030000000057e+04
-3.021244120000000112e+04
-3.021527270000000135e+04
-3.021581569999999920e+04
-3.021053970000000118e+04
-3.021444580000000133e+04
-3.021192540000000008e+04
-3.021489449999999852e+04
-3.021301339999999982e+04
-3.021439359999999942e+04
-3.020760989999999947e+04
-3.021240120000000024e+04
-3.021318089999999938e+04
-3.021479669999999896e+04
-3.021654630000000179e+04
-3.021716719999999987e+04
-3.021368879999999990e+04
-3.021443079999999827e+04
-3.021184379999999874e+04
-3.021576369999999952e+04
-3.021209370000000126e+04
-3.021218040000000110e+04
-3.021361179999999877e+04
-3.021361079999999856e+04
-3.021868370000000141e+04
-3.021504739999999947e+04
-3.021426099999999860e+04
-3.021597290000000066e+04
-3.021980830000000060e+04
-3.021578250000000116e+04
-3.020834709999999905e+04
-3.021373660000000018e+04
-3.021109430000000066e+04
-3.021227470000000176e+04
-3.021459850000000006e+04
-3.021519789999999921e+04
-3.021541509999999835e+04
-3.021491500000000087e+04
-3.021577500000000146e+04
-3.021878150000000096e+04
-3.021262930000000051e+04
-3.021494629999999961e+04
-3.021563799999999901e+04
-3.021512879999999859e+04
-3.021270420000000013e+04
-3.021283520000000135e+04
-3.021783039999999892e+04
-3.021372320000000036e+04
-3.021636469999999827e+04
-3.021325660000000062e+04
-3.021205199999999968e+04
-3.021411209999999846e+04
-3.021486899999999878e+04
-3.021452179999999862e+04
-3.021405710000000181e+04
-3.021161909999999989e+04
-3.021380040000000008e+04
-3.021612459999999919e+04
-3.021332869999999821e+04
-3.021517020000000048e+04
-3.021138569999999891e+04
-3.022012250000000131e+04
-3.021701310000000012e+04
-3.021752899999999863e+04
-3.021679070000000138e+04
-3.021562470000000030e+04
-3.021550010000000111e+04
-3.021211449999999968e+04
-3.021423440000000119e+04
-3.021454609999999957e+04
-3.021418240000000151e+04
-3.021656989999999860e+04
-3.021323319999999876e+04
-3.021335359999999855e+04
-3.021509089999999924e+04
-3.021662640000000101e+04
-3.021451599999999962e+04
-3.021635369999999966e+04
-3.021782949999999983e+04
-3.020999090000000069e+04
-3.021625890000000072e+04
-3.021381840000000011e+04
-3.021287059999999838e+04
-3.021730909999999858e+04
-3.021312719999999899e+04
-3.021316349999999875e+04
-3.021093839999999909e+04
-3.021101429999999891e+04
-3.021637229999999909e+04
-3.021452300000000105e+04
-3.021437500000000000e+04
-3.021353919999999925e+04
-3.021084509999999864e+04
-3.021088899999999921e+04
-3.021488369999999850e+04
-3.020998570000000109e+04
-3.021655419999999867e+04
-3.021560020000000077e+04
-3.021556920000000173e+04
-3.021294749999999840e+04
-3.021706299999999828e+04
-3.021465750000000116e+04
-3.021583759999999893e+04
-3.021174610000000030e+04
-3.021574390000000130e+04
-3.021276640000000043e+04
-3.021388530000000173e+04
-3.021025349999999889e+04
-3.021542940000000090e+04
-3.021173609999999826e+04
-3.021552660000000105e+04
-3.021031759999999849e+04
-3.021312619999999879e+04
-3.021565899999999965e+04
-3.021308689999999842e+04
-3.021644670000000042e+04
-3.021232050000000163e+04
-3.021414410000000134e+04
-3.021363530000000173e+04
-3.021341040000000066e+04
-3.021203700000000026e+04
-3.021128450000000157e+04
-3.021248679999999877e+04
-3.021341340000000127e+04
-3.021650149999999849e+04
-3.021713910000000033e+04
-3.021269139999999970e+04
-3.021425080000000162e+04
-3.021455529999999999e+04
-3.021942880000000150e+04
-3.021705189999999857e+04
-3.021580480000000171e+04
-3.021486479999999938e+04
-3.021182449999999881e+04
-3.021378180000000066e+04
-3.021230840000000171e+04
-3.021496069999999963e+04
-3.021374480000000040e+04
-3.021604030000000057e+04
-3.021548089999999866e+04
-3.021300240000000122e+04
-3.021211779999999999e+04
-3.021707180000000153e+04
-3.020807530000000042e+04
-3.021058610000000044e+04
-3.021361260000000038e+04
-3.021488999999999942e+04
-3.021489530000000013e+04
-3.021669989999999962e+04
-3.021662749999999869e+04
-3.021246719999999914e+04
-3.021615659999999843e+04
-3.021730299999999988e+04
-3.021442469999999958e+04
-3.021326800000000003e+04
-3.021087800000000061e+04
-3.021548300000000017e+04
-3.021424569999999949e+04
-3.021572639999999956e+04
-3.021548600000000079e+04
-3.021259159999999974e+04
-3.021599510000000009e+04
-3.021774680000000080e+04
-3.021031610000000001e+04
-3.021296220000000176e+04
-3.021751719999999841e+04
-3.021417099999999846e+04
-3.021671730000000025e+04
-3.021333269999999902e+04
-3.021515299999999843e+04
-3.021487489999999889e+04
-3.021224049999999988e+04
-3.021547160000000076e+04
-3.021532410000000164e+04
-3.021561160000000018e+04
-3.021119849999999860e+04
-3.021645579999999973e+04
-3.021342719999999827e+04
-3.021465509999999995e+04
-3.021711769999999888e+04
-3.021311040000000139e+04
-3.021329539999999906e+04
-3.021075519999999960e+04
-3.021500769999999829e+04
-3.021600279999999839e+04
-3.021662789999999950e+04
-3.021316270000000077e+04
-3.021173029999999926e+04
-3.021288060000000041e+04
-3.021516920000000027e+04
-3.021843720000000030e+04
-3.021696679999999833e+04
-3.021663179999999920e+04
-3.021321099999999933e+04
-3.021820599999999831e+04
-3.021427449999999953e+04
-3.021518539999999848e+04
-3.021424669999999969e+04
-3.021516849999999977e+04
-3.021401740000000063e+04
-3.021600749999999971e+04
-3.021250270000000091e+04
-3.021636609999999928e+04
-3.021151699999999983e+04
-3.021385269999999946e+04
-3.021063469999999870e+04
-3.021451540000000023e+04
-3.021573960000000079e+04
-3.021652890000000116e+04
-3.021678610000000117e+04
-3.021395539999999892e+04
-3.021575300000000061e+04
-3.021768760000000111e+04
-3.021698110000000088e+04
-3.021499729999999909e+04
-3.021104200000000128e+04
-3.021716730000000098e+04
-3.021077149999999892e+04
-3.021604969999999958e+04
-3.021305860000000030e+04
-3.021533109999999942e+04
-3.021568720000000030e+04
-3.021308369999999923e+04
-3.021676599999999962e+04
-3.021697880000000077e+04
-3.021607790000000023e+04
-3.021573879999999917e+04
-3.021838039999999819e+04
-3.021202579999999944e+04
-3.021464549999999872e+04
-3.021685699999999997e+04
-3.021291700000000128e+04
-3.021539199999999983e+04
-3.021635540000000037e+04
-3.021192980000000171e+04
-3.021455169999999998e+04
-3.021564510000000155e+04
-3.021349230000000171e+04
-3.021378389999999854e+04
-3.021176559999999881e+04
-3.021337689999999930e+04
-3.021630779999999868e+04
-3.021368980000000010e+04
-3.021503689999999915e+04
-3.021569139999999970e+04
-3.021497469999999885e+04
-3.021678050000000076e+04
-3.021382050000000163e+04
-3.021689890000000014e+04
-3.021487689999999930e+04
-3.021670560000000114e+04
-3.021362570000000051e+04
-3.021608740000000034e+04
-3.021745739999999932e+04
-3.021865439999999944e+04
-3.021594770000000062e+04
-3.021551559999999881e+04
-3.021688179999999920e+04
-3.021696970000000147e+04
-3.020788929999999891e+04
-3.021595599999999831e+04
-3.022033039999999892e+04
-3.021163920000000144e+04
-3.021384049999999843e+04
-3.021566440000000148e+04
-3.021352790000000095e+04
-3.021016180000000168e+04
-3.021278540000000066e+04
-3.021410580000000118e+04
-3.021478380000000107e+04
-3.021349980000000141e+04
-3.021412419999999838e+04
-3.021309879999999976e+04
-3.021568799999999828e+04
-3.022021619999999893e+04
-3.021568999999999869e+04
-3.021506269999999859e+04
-3.021222379999999976e+04
-3.021134720000000016e+04
-3.021682860000000073e+04
-3.021571299999999974e+04
-3.021098029999999926e+04
-3.021418200000000070e+04
-3.021798939999999857e+04
-3.021213989999999831e+04
-3.021527300000000105e+04
-3.021467220000000088e+04
-3.021204530000000159e+04
-3.021086189999999988e+04
-3.021514500000000044e+04
-3.021342669999999998e+04
-3.021358250000000044e+04
-3.021444210000000021e+04
-3.021046689999999944e+04
-3.021823809999999867e+04
-3.021738750000000073e+04
-3.021648609999999826e+04
-3.021699150000000009e+04
-3.021265840000000026e+04
-3.020973749999999927e+04
-3.021870239999999831e+04
-3.021200930000000153e+04
-3.021475539999999819e+04
-3.021757050000000163e+04
-3.021507459999999992e+04
-3.021530570000000080e+04
-3.021391739999999845e+04
-3.021818809999999939e+04
-3.021595769999999902e+04
-3.021812359999999899e+04
-3.021658139999999912e+04
-3.021292740000000049e+04
-3.021663810000000012e+04
-3.021426919999999882e+04
-3.021422149999999965e+04
-3.021684539999999834e+04
-3.021157219999999870e+04
-3.021518709999999919e+04
-3.021939670000000115e+04
-3.021514080000000104e+04
-3.021138989999999831e+04
-3.021615720000000147e+04
-3.021206299999999828e+04
-3.021597169999999824e+04
-3.021411799999999857e+04
-3.021335440000000017e+04
-3.020873670000000129e+04
-3.021439270000000033e+04
-3.021253410000000076e+04
-3.021638450000000012e+04
-3.021648159999999916e+04
-3.021423110000000088e+04
-3.021427520000000004e+04
-3.021067610000000059e+04
-3.021068210000000181e+04
-3.021401139999999941e+04
-3.021462180000000080e+04
-3.021621199999999953e+04
-3.021243040000000110e+04
-3.021451009999999951e+04
-3.021419050000000061e+04
-3.021580140000000029e+04
-3.021789640000000145e+04
-3.021315940000000046e+04
-3.021246730000000025e+04
-3.021115569999999934e+04
-3.021543349999999919e+04
-3.021698740000000180e+04
-3.021630389999999898e+04
-3.021366259999999966e+04
-3.021408539999999994e+04
-3.021772999999999956e+04
-3.021116949999999997e+04
-3.021547669999999925e+04
-3.021348800000000119e+04
-3.021238509999999951e+04
-3.021172889999999825e+04
-3.021133799999999974e+04
-3.021240480000000025e+04
-3.021782730000000083e+04
-3.021267569999999978e+04
-3.021382300000000032e+04
-3.021044519999999829e+04
-3.021568230000000040e+04
-3.021659419999999955e+04
-3.021657099999999991e+04
-3.021811880000000019e+04
-3.021131469999999899e+04
-3.021114649999999892e+04
-3.021462779999999839e+04
-3.021294540000000052e+04
-3.021530359999999928e+04
-3.021749669999999969e+04
-3.021558000000000175e+04
-3.021040720000000147e+04
-3.021656120000000010e+04
-3.021880289999999877e+04
-3.021426469999999972e+04
-3.021679320000000007e+04
-3.021148530000000028e+04
-3.021607519999999931e+04
-3.021436509999999907e+04
-3.021193969999999899e+04
-3.021309539999999834e+04
-3.021721329999999944e+04
-3.021094859999999971e+04
-3.021321059999999852e+04
-3.021837189999999828e+04
-3.021326030000000173e+04
-3.021583420000000115e+04
-3.021521340000000055e+04
-3.021516500000000087e+04
-3.021491709999999875e+04
-3.021381750000000102e+04
-3.021786969999999928e+04
-3.021533689999999842e+04
-3.021346280000000115e+04
-3.021488230000000112e+04
-3.021088070000000153e+04
-3.021571039999999994e+04
-3.021373289999999906e+04
-3.021494919999999911e+04
-3.021655679999999847e+04
-3.021571389999999883e+04
-3.021886319999999978e+04
-3.021543639999999868e+04
-3.021522090000000026e+04
-3.021511400000000140e+04
-3.021307619999999952e+04
-3.021276929999999993e+04
-3.021734400000000096e+04
-3.021494120000000112e+04
-3.021154929999999877e+04
-3.021429339999999866e+04
-3.021078879999999845e+04
-3.021517260000000169e+04
-3.021501410000000033e+04
-3.021729609999999957e+04
-3.021384449999999924e+04
-3.021441690000000017e+04
-3.021349940000000061e+04
-3.021626450000000114e+04
-3.021400310000000172e+04
-3.021298119999999835e+04
-3.021315279999999984e+04
-3.021557200000000012e+04
-3.021327200000000084e+04
-3.021520009999999820e+04
-3.020768170000000100e+04
-3.021298430000000008e+04
-3.021228199999999924e+04
-3.021140360000000146e+04
-3.021536760000000140e+04
-3.021438430000000153e+04
-3.021169640000000072e+04
-3.021743690000000061e+04
-3.021269740000000093e+04
-3.021367870000000039e+04
-3.021410009999999966e+04
-3.021516330000000016e+04
-3.021395790000000125e+04
-3.021272889999999825e+04
-3.021440279999999984e+04
-3.021335910000000149e+04
-3.021513269999999829e+04
-3.021515580000000045e+04
-3.021908130000000165e+04
-3.021268479999999909e+04
-3.021631480000000010e+04
-3.021170850000000064e+04
-3.020961469999999827e+04
-3.021306220000000030e+04
-3.020941449999999895e+04
-3.021544529999999941e+04
-3.021483989999999903e+04
-3.022059769999999844e+04
-3.021310900000000038e+04
-3.021670760000000155e+04
-3.021537849999999889e+04
-3.021596779999999853e+04
-3.021624759999999878e+04
-3.021671640000000116e+04
-3.021644180000000051e+04
-3.021279809999999998e+04
-3.021465420000000086e+04
-3.021413720000000103e+04
-3.021137340000000040e+04
-3.021653689999999915e+04
-3.020992859999999928e+04
-3.021403259999999864e+04
-3.021398749999999927e+04
-3.021438969999999972e+04
-3.021904160000000047e+04
-3.021419489999999860e+04
-3.021280549999999857e+04
-3.021712849999999889e+04
-3.021102709999999934e+04
-3.020997249999999985e+04
-3.021175639999999839e+04
-3.021554809999999998e+04
-3.021243170000000100e+04
-3.021655429999999978e+04
-3.021415369999999893e+04
-3.021634479999999894e+04
-3.021521779999999853e+04
-3.021286339999999836e+04
-3.021241149999999834e+04
-3.021186569999999847e+04
-3.021307570000000123e+04
-3.021238989999999831e+04
-3.021520769999999902e+04
-3.021939679999999862e+04
-3.021510329999999885e+04
-3.021264510000000155e+04
-3.021709270000000106e+04
-3.021149559999999838e+04
-3.021390810000000056e+04
-3.021541820000000007e+04
-3.021381940000000031e+04
-3.021435139999999956e+04
-3.021663149999999951e+04
-3.021034969999999885e+04
-3.021283280000000013e+04
-3.021329609999999957e+04
-3.022017290000000139e+04
-3.021416219999999885e+04
-3.021517250000000058e+04
-3.021491649999999936e+04
-3.021382140000000072e+04
-3.021159800000000178e+04
-3.021662670000000071e+04
-3.021369139999999970e+04
-3.021626150000000052e+04
-3.021488950000000114e+04
-3.021212689999999930e+04
-3.021793590000000040e+04
-3.021522660000000178e+04
-3.021636720000000059e+04
-3.021337210000000050e+04
-3.021346150000000125e+04
-3.021645920000000115e+04
-3.021050159999999960e+04
-3.021118920000000071e+04
-3.021226359999999841e+04
-3.020732839999999851e+04
-3.021430180000000109e+04
-3.021455129999999917e+04
-3.020652609999999913e+04
-3.021488759999999820e+04
-3.021438379999999961e+04
-3.021541249999999854e+04
-3.021808819999999832e+04
-3.021527799999999843e+04
-3.021461699999999837e+04
-3.021470729999999821e+04
-3.020881190000000061e+04
-3.021688090000000011e+04
-3.021757640000000174e+04
-3.021477249999999913e+04
-3.020809119999999893e+04
-3.021621350000000166e+04
-3.021454680000000008e+04
-3.021478649999999834e+04
-3.021263269999999829e+04
-3.021718439999999828e+04
-3.021436000000000058e+04
-3.021570690000000104e+04
-3.021708819999999832e+04
-3.021691440000000148e+04
-3.021726069999999891e+04
-3.021436799999999857e+04
-3.021326280000000042e+04
-3.021234539999999834e+04
-3.020883450000000084e+04
-3.021298500000000058e+04
-3.021492030000000159e+04
-3.021586449999999968e+04
-3.021434960000000137e+04
-3.021189089999999851e+04
-3.021319280000000072e+04
-3.021495790000000125e+04
-3.021832709999999861e+04
-3.021566419999999925e+04
-3.021488399999999820e+04
-3.022001020000000062e+04
-3.021453740000000107e+04
-3.021575219999999899e+04
-3.021545149999999921e+04
-3.021325709999999890e+04
-3.020921619999999893e+04
-3.021788729999999850e+04
-3.021447669999999925e+04
-3.021138190000000031e+04
-3.021446270000000004e+04
-3.021615999999999985e+04
-3.021613989999999831e+04
-3.021553619999999864e+04
-3.021679360000000088e+04
-3.021360169999999925e+04
-3.021552230000000054e+04
-3.021356200000000172e+04
-3.021339250000000175e+04
-3.021619320000000153e+04
-3.021326770000000033e+04
-3.021578810000000158e+04
-3.021711379999999917e+04
-3.021475549999999930e+04
-3.021884899999999834e+04
-3.021570590000000084e+04
-3.021179330000000118e+04
-3.021545060000000012e+04
-3.021689069999999992e+04
-3.020843690000000061e+04
-3.021416619999999966e+04
-3.021074639999999999e+04
-3.021171759999999995e+04
-3.021695799999999872e+04
-3.021704959999999846e+04
-3.021271180000000095e+04
-3.021445209999999861e+04
-3.021248809999999867e+04
-3.021611579999999958e+04
-3.021542150000000038e+04
-3.021685459999999875e+04
-3.021520500000000175e+04
-3.021704349999999977e+04
-3.021188859999999841e+04
-3.021333740000000034e+04
-3.021512389999999868e+04
-3.021963799999999901e+04
-3.021564140000000043e+04
-3.021599000000000160e+04
-3.021690130000000136e+04
-3.021320089999999982e+04
-3.021542190000000119e+04
-3.021214770000000135e+04
-3.021076829999999973e+04
-3.021718709999999919e+04
-3.021233819999999832e+04
-3.021320079999999871e+04
-3.021287240000000020e+04
-3.021676670000000013e+04
-3.021499109999999928e+04
-3.021752669999999853e+04
-3.021307549999999901e+04
-3.021282649999999921e+04
-3.021326699999999983e+04
-3.021515840000000026e+04
-3.021154089999999997e+04
-3.021329469999999856e+04
-3.021753029999999853e+04
-3.021398779999999897e+04
-3.021686799999999857e+04
-3.021329420000000027e+04
-3.021242450000000099e+04
-3.021492020000000048e+04
-3.021179160000000047e+04
-3.021388200000000143e+04
-3.021399039999999877e+04
-3.021384839999999895e+04
-3.021626499999999942e+04
-3.021476819999999861e+04
-3.021370300000000134e+04
-3.021258329999999842e+04
-3.021745409999999902e+04
-3.021430169999999998e+04
-3.021255319999999847e+04
-3.021133819999999832e+04
-3.021678310000000056e+04
-3.021694269999999960e+04
-3.021296199999999953e+04
-3.021705310000000100e+04
-3.021471199999999953e+04
-3.021542169999999896e+04
-3.021452660000000105e+04
-3.021203009999999995e+04
-3.021503440000000046e+04
-3.021599380000000019e+04
-3.021135640000000058e+04
-3.021536319999999978e+04
-3.021541549999999916e+04
-3.021184850000000006e+04
-3.021494959999999992e+04
-3.021353919999999925e+04
-3.021202999999999884e+04
-3.021615279999999984e+04
-3.021571800000000076e+04
-3.021741470000000118e+04
-3.021148709999999846e+04
-3.021368330000000060e+04
-3.021250489999999991e+04
-3.021513820000000123e+04
-3.021459869999999864e+04
-3.021400560000000041e+04
-3.021269499999999971e+04
-3.021482280000000173e+04
-3.021574980000000141e+04
-3.021554249999999956e+04
-3.021594930000000022e+04
-3.021376719999999841e+04
-3.021618219999999928e+04
-3.021273229999999967e+04
-3.021461509999999907e+04
-3.021112459999999919e+04
-3.021262580000000162e+04
-3.020911370000000170e+04
-3.021502739999999903e+04
-3.021200289999999950e+04
-3.021663149999999951e+04
-3.021603009999999995e+04
-3.021431160000000091e+04
-3.021681920000000173e+04
-3.021446080000000075e+04
-3.021389110000000073e+04
-3.021620200000000114e+04
-3.021477149999999892e+04
-3.021343000000000029e+04
-3.021353519999999844e+04
-3.021448819999999978e+04
-3.021626699999999983e+04
-3.021369589999999880e+04
-3.021592069999999876e+04
-3.021286419999999998e+04
-3.021191760000000068e+04
-3.021403519999999844e+04
-3.021523760000000038e+04
-3.021494340000000011e+04
-3.021560610000000088e+04
-3.021490869999999995e+04
-3.021808589999999822e+04
-3.021228440000000046e+04
-3.021504809999999998e+04
-3.021564440000000104e+04
-3.021574299999999857e+04
-3.021324100000000180e+04
-3.021213550000000032e+04
-3.021697320000000036e+04
-3.021514199999999983e+04
-3.021622369999999864e+04
-3.021719499999999971e+04
-3.021551450000000114e+04
-3.021021649999999863e+04
-3.021599090000000069e+04
-3.021840169999999853e+04
-3.021178710000000137e+04
-3.021517429999999877e+04
-3.021402939999999944e+04
-3.021479469999999856e+04
-3.021432010000000082e+04
-3.021216909999999916e+04
-3.021729520000000048e+04
-3.021714800000000105e+04
-3.021306669999999940e+04
-3.021220699999999852e+04
-3.021647599999999875e+04
-3.021478910000000178e+04
-3.021487559999999939e+04
-3.021303220000000147e+04
-3.021386010000000169e+04
-3.021458680000000095e+04
-3.021230459999999948e+04
-3.021621299999999974e+04
-3.021607229999999981e+04
-3.021431049999999959e+04
-3.020995620000000054e+04
-3.021215460000000166e+04
-3.021390250000000015e+04
-3.021324100000000180e+04
-3.021243070000000080e+04
-3.021666770000000179e+04
-3.021476259999999820e+04
-3.021503610000000117e+04
-3.021303940000000148e+04
-3.021208009999999922e+04
-3.021723440000000119e+04
-3.021466059999999925e+04
-3.021168049999999857e+04
-3.021473790000000008e+04
-3.021568709999999919e+04
-3.021154520000000048e+04
-3.021690350000000035e+04
-3.021561439999999857e+04
-3.021333669999999984e+04
-3.021467980000000171e+04
-3.021590060000000085e+04
-3.021515390000000116e+04
-3.021405310000000100e+04
-3.021774000000000160e+04
-3.021824970000000030e+04
-3.021730080000000089e+04
-3.021834219999999914e+04
-3.021485610000000088e+04
-3.021474989999999889e+04
-3.021363290000000052e+04
-3.021386439999999857e+04
-3.021411600000000180e+04
-3.021432939999999871e+04
-3.021542910000000120e+04
-3.021274750000000131e+04
-3.021101039999999921e+04
-3.021217290000000139e+04
-3.021463439999999900e+04
-3.021155840000000171e+04
-3.021564210000000094e+04
-3.021150639999999839e+04
-3.021280429999999978e+04
-3.021319989999999962e+04
-3.021816820000000007e+04
-3.021495170000000144e+04
-3.021638859999999841e+04
-3.021592359999999826e+04
-3.021333439999999973e+04
-3.021633250000000044e+04
-3.021339240000000063e+04
-3.021402400000000125e+04
-3.021534440000000177e+04
-3.021175790000000052e+04
-3.021405310000000100e+04
-3.021711869999999908e+04
-3.021236270000000150e+04
-3.021838829999999871e+04
-3.021402130000000034e+04
-3.021541930000000139e+04
-3.021621359999999913e+04
-3.021604630000000179e+04
-3.021827330000000075e+04
-3.021876629999999932e+04
-3.021510840000000098e+04
-3.021598210000000108e+04
-3.021365529999999853e+04
-3.021660489999999845e+04
-3.021860350000000108e+04
-3.020891070000000036e+04
-3.021153580000000147e+04
-3.021449550000000090e+04
-3.021252189999999973e+04
-3.021045720000000074e+04
-3.021134990000000107e+04
-3.021551450000000114e+04
-3.021107200000000012e+04
-3.021635650000000169e+04
-3.021452820000000065e+04
-3.021491440000000148e+04
-3.021608290000000125e+04
-3.021408459999999832e+04
-3.021700899999999820e+04
-3.021307070000000022e+04
-3.021720349999999962e+04
-3.021287500000000000e+04
-3.021334509999999864e+04
-3.021386950000000070e+04
-3.021281629999999859e+04
-3.021429309999999896e+04
-3.021762870000000112e+04
-3.021690160000000105e+04
-3.021554049999999916e+04
-3.021478900000000067e+04
-3.021144740000000093e+04
-3.021447539999999935e+04
-3.021466059999999925e+04
-3.020845550000000003e+04
-3.021491119999999864e+04
-3.021643519999999990e+04
-3.021248430000000008e+04
-3.021481999999999971e+04
-3.021025630000000092e+04
-3.021400010000000111e+04
-3.021395599999999831e+04
-3.021303510000000097e+04
-3.021453320000000167e+04
-3.021386920000000100e+04
-3.021262220000000161e+04
-3.021606339999999909e+04
-3.021350839999999880e+04
-3.021572090000000026e+04
-3.021360880000000179e+04
-3.021485480000000098e+04
-3.021635120000000097e+04
-3.021769589999999880e+04
-3.021295639999999912e+04
-3.021850179999999818e+04
-3.021218909999999960e+04
-3.021590290000000095e+04
-3.021336890000000130e+04
-3.021331829999999900e+04
-3.021749580000000060e+04
-3.021459330000000045e+04
-3.021503879999999845e+04
-3.021410719999999856e+04