-5.419752660172805037e+01 3.330476974080002872e+00 -1.399671042048001413e+00 3.330476974080002872e+00 -2.569038512947202335e+01 -1.778648846745601375e+01 -1.399671042048001413e+00 -1.778648846745601375e+01 -2.659157301657602446e+01
-1.458661843353601384e+01 3.047495270400002898e+00 -1.071194587545600996e+01 3.047495270400002898e+00 -5.150920041676804573e+01 -4.109765050368003436e+00 -1.071194587545600996e+01 -4.109765050368003436e+00 -2.204427471667202099e+01
-3.599309592576003780e+01 6.576059437056005486e+00 -8.635295526912008413e+00 6.576059437056005486e+00 -4.207502577254403775e+01 2.686149402624002480e+00 -8.635295526912008413e+00 2.686149402624002480e+00 -4.655484382003204047e+01
-2.679619055616002665e+00 1.367672341708801298e+01 -3.091030917120002885e-01 1.367672341708801298e+01 -2.796947623526402538e+01 1.142593048166401104e+01 -3.091030917120002885e-01 1.142593048166401104e+01 -9.919597105152009320e+00
-1.187870120755201064e+01 4.997892243456004024e+00 -8.792023855104007524e+00 4.997892243456004024e+00 -4.834633568256004210e+00 -1.305198688665601203e+01 -8.792023855104007524e+00 -1.305198688665601203e+01 -1.756445666918401471e+01
-3.306532368384003462e+01 7.618738176000006135e-02 3.197693251584003082e+00 7.618738176000006135e-02 -3.959784747417603512e+01 5.394066628608005232e+00 3.199870033920003021e+00 5.394066628608005232e+00 -4.920616470528004527e+01
-4.436500079001604036e+01 -8.772432814080007857e-01 -1.273417666560001216e+00 -8.772432814080007857e-01 -4.846823549337604931e+01 1.932982714368001842e+00 -1.273417666560001216e+00 1.932982714368001842e+00 -2.814579560448002837e+00
-1.793668644864001749e+01 4.745385492480004963e+00 -1.861148897280001657e+00 4.745385492480004963e+00 -2.776268191334402502e+01 5.520320004096005206e+00 -1.861148897280001657e+00 5.518143221760005268e+00 -4.091480078745603777e+01
-5.149613972275204787e+01 1.542903319756801395e+01 6.343143727104005869e+00 1.542903319756801395e+01 -7.774378113024006609e+01 -2.190060708249602328e+01 6.343143727104005869e+00 -2.190060708249602328e+01 -6.271309910016005773e+01
-1.511557654118401395e+01 2.154143799705602191e+01 7.860361015296007281e+00 2.154143799705602191e+01 -6.042094730035205430e+01 -3.892086816768003832e+00 7.860361015296007281e+00 -3.892086816768003832e+00 -2.500469869363202591e+01
-2.280397175193601811e+01 8.315308523520007711e+00 -1.130620745318400999e+01 8.315308523520007711e+00 -2.639566260633602468e+01 1.122784328908801044e+01 -1.130620745318400999e+01 1.122784328908801044e+01 -1.914044708044801979e+01
-6.811151929344005929e+00 2.916888330240002825e-01 -2.396637351936002247e+00 2.916888330240002825e-01 -7.435888459776007764e+00 -6.434568585216005943e+00 -2.396637351936002247e+00 -6.434568585216005943e+00 -2.461723143782402090e+01
-1.174156392038401187e+01 -1.038542852505601033e+01 1.436676341760001252e+00 -1.038542852505601033e+01 -2.125410272870401940e+01 4.201189908480004176e-01 1.436676341760001252e+00 4.201189908480004176e-01 -2.382052910284802039e+01
-3.115193201049602933e+01 -1.088826524467201118e+01 5.259106123776005504e+00 -1.088826524467201118e+01 -2.620410576076802300e+01 -8.472036851712008598e+00 5.259106123776005504e+00 -8.472036851712008598e+00 -5.446091726438405090e+01
-3.443887333785603744e+01 -5.505082527744004750e+00 1.443859723468801270e+01 -5.505082527744004750e+00 -3.144579762585603078e+01 1.198536354201601029e+01 1.443859723468801270e+01 1.198536354201601029e+01 -1.680911319859201569e+01
-2.921459573145602917e+01 -8.796377419776009177e+00 1.739249086464001559e+00 -8.796377419776009177e+00 -1.618219988582401569e+01 -5.544264609792004528e+00 1.739249086464001559e+00 -5.544264609792004528e+00 -9.447235338240009384e+00
-2.019183294873601753e+01 1.807600051814401709e+01 2.237732241408002309e+00 1.807600051814401709e+01 -2.590806336307202429e+01 2.884236595200002640e+00 2.237732241408002309e+00 2.884236595200002640e+00 -2.253187395993602138e+01
-9.188198240256008731e+00 1.374420366950401373e+01 -3.308709150720003489e+00 1.374420366950401373e+01 -2.320449970176002097e+01 1.296273881088001190e+01 -3.308709150720003489e+00 1.296273881088001190e+01 -3.252112809984003405e+01
6.103697670144005549e+00 -1.125614145945601052e+01 -6.223420698624005709e+00 -1.125831824179201135e+01 -2.809137604608002547e+01 -3.019197100032002812e+00 -6.223420698624005709e+00 -3.019197100032002812e+00 -3.077970223104002656e+01
-2.331333881856001877e+00 -7.988791173120008082e+00 -6.717550288896006805e+00 -7.988791173120008082e+00 -6.730610982912006435e+00 -2.738392178688002776e+00 -6.717550288896006805e+00 -2.738392178688002776e+00 -3.149151005491203037e+01
-4.397753353420803535e+01 -7.337933254656006987e+00 -1.267758032486401198e+01 -7.337933254656006987e+00 -6.611323310899206263e+01 -8.054094643200007675e-02 -1.267758032486401198e+01 -8.054094643200007675e-02 -2.271037011148802165e+01
-2.509830033408002237e+01 9.828172247040008358e+00 -1.414908518400001292e+01 9.825995464704009308e+00 2.531597856768002419e+00 -9.617024360448009901e+00 -1.414690840166401209e+01 -9.617024360448009901e+00 -8.247828271104006959e+00
-3.153069213696002748e+01 -1.589051105280001375e+00 -7.518606188544007196e+00 -1.589051105280001375e+00 -3.237310690099202759e+01 -1.530277982208001264e+00 -7.518606188544007196e+00 -1.530277982208001264e+00 -2.776703547801602667e+01
-2.109519761817601946e+01 -1.874427269529601858e+01 2.034638449459201937e+01 -1.874427269529601858e+01 -6.318981443174405399e+01 1.075330473984000967e+01 2.034638449459201937e+01 1.075330473984000967e+01 -4.824402691276804234e+01
-1.487177691955201553e+01 3.970450980864003832e+00 -8.095453507584007724e+00 3.970450980864003832e+00 -4.612819448217604901e+01 -8.802907766784008103e+00 -8.095453507584007724e+00 -8.800730984448007277e+00 -2.812402778112002366e+01
-2.944751144140802879e+01 -4.832456785920005160e+00 1.906208291635201491e+01 -4.832456785920005160e+00 -1.344163092480001254e+01 7.011415904256006471e+00 1.906208291635201491e+01 7.011415904256006471e+00 5.054488584192004197e+00
-2.544658550784002671e+01 7.220387008512006766e+00 1.293879420518401169e+01 7.220387008512006766e+00 -2.054447168716801997e+01 -1.195053502464001216e+00 1.293879420518401169e+01 -1.192876720128001056e+00 -1.121913615974401068e+01
-2.686367080857602474e+01 1.252955912601601085e+01 3.759303094272003598e+00 1.252955912601601085e+01 -1.557923117875201413e+01 1.410554953728001326e+00 3.759303094272003598e+00 1.410554953728001326e+00 -2.871828935884802547e+01
-5.681184218726405533e+01 -5.994858553344005081e+00 2.772132304896002708e+01 -5.997035335680005907e+00 -4.842252306432004616e+01 -1.778866524979201813e+01 2.772132304896002708e+01 -1.778866524979201813e+01 -6.701442099609606373e+01
-3.181585062297602917e+01 2.625199497216002431e+00 -5.979621076992005513e+00 2.625199497216002431e+00 -2.427547661107202259e+01 7.651389911040006986e+00 -5.979621076992005513e+00 7.651389911040006986e+00 -1.391399269171201247e+01
-3.150674753126403260e+01 1.123872720076801102e+01 -6.856864358400006632e-01 1.123872720076801102e+01 -1.550304379699201363e+01 1.284301578240001074e-01 -6.856864358400006632e-01 1.284301578240001074e-01 -4.757575473561604440e+01
-3.833096015462403727e+01 3.739712053248003265e+00 -1.003496656896000871e+00 3.739712053248003265e+00 -2.409480367718402505e+01 -7.379292119040007369e-01 -1.003496656896000871e+00 -7.379292119040007369e-01 -5.017265606246404985e+01
-3.778894135296003753e+01 -5.626982338560005736e+00 -1.138892518195200942e+01 -5.626982338560005736e+00 -4.510075321958404260e+01 -4.270846943232004200e+00 -1.138892518195200942e+01 -4.270846943232004200e+00 -3.968927233228803431e+01
-1.871379774259201767e+01 6.293077733376005511e+00 1.090132593868801081e+01 6.290900951040006461e+00 2.372692746240002426e-01 -2.015700443136001940e+00 1.090132593868801081e+01 -2.015700443136001940e+00 -2.463029213184002231e+01
-4.104105416294403597e+01 -1.151953212211201105e+01 1.782567054950401797e+01 -1.151953212211201105e+01 -2.178088405401602046e+01 4.749739057152003952e+00 1.782567054950401797e+01 4.749739057152003952e+00 -1.694407370342401720e+01
-2.623240393113602309e+01 9.867354329088009024e+00 -8.398026252288007143e+00 9.867354329088009024e+00 -2.050746638745602013e+01 -2.385753440256002111e+00 -8.398026252288007143e+00 -2.385753440256002111e+00 -3.424078614528003328e+01
-5.613268609843205326e+01 -8.567815274496009437e+00 -4.634369593344003668e+00 -8.567815274496009437e+00 -2.660681049292802314e+01 -5.694462590976004712e+00 -4.634369593344003668e+00 -5.694462590976004712e+00 -3.702706753536003959e+01
-2.603213995622402166e+01 6.432391802880006004e+00 -7.296574390272006383e+00 6.432391802880006004e+00 -3.020720847667202946e+01 1.344816127180801324e+01 -7.296574390272006383e+00 1.344816127180801324e+01 -4.075807245926404221e+01
-3.430826639769603048e+01 9.660560007168008667e+00 6.808975147008006878e+00 9.660560007168008667e+00 -2.988286790860803066e+01 -2.607785238528002481e+00 6.808975147008006878e+00 -2.607785238528002481e+00 -4.092133113446404025e+01
-3.389467775385602977e+01 -6.541230919680005584e+00 1.959321780633601762e+01 -6.541230919680005584e+00 -3.150892431360002988e+01 -3.225991421952003169e+00 1.959321780633601762e+01 -3.225991421952003169e+00 -3.920602665369603557e+01
-2.406868228915202579e+01 -3.757997024870403635e+01 -8.130282024960008513e+00 -3.757997024870403635e+01 -7.219080939110406803e+01 -5.670517985280005391e+00 -8.130282024960008513e+00 -5.668341202944005452e+00 -5.750405897011205525e+01
-1.780390272614401681e+01 -1.868767635456001841e+01 1.401847824384001351e+00 -1.868767635456001841e+01 3.750595964928003401e+00 -1.306069401600001324e-02 1.401847824384001351e+00 -1.306069401600001324e-02 -1.654572253593601516e+01
-4.662014729011203684e+01 1.142593048166401104e+01 1.060092997632001044e+01 1.142810726400001187e+01 -3.773016822988803654e+01 -1.875080304230401751e+01 1.060092997632001044e+01 -1.875080304230401751e+01 -6.130036736409605425e+01
-1.786920619622401674e+01 -1.306069401600001179e+01 -5.931731865600005094e+00 -1.306069401600001179e+01 -1.697890222080001621e+00 7.496838365184006925e+00 -5.931731865600005094e+00 7.494661582848006987e+00 -2.850714147225602701e+01
-4.273023725568004494e+01 -2.612138803200002357e+01 3.209230197964802755e+01 -2.612138803200002357e+01 -2.653279989350402346e+01 -2.329157099520002272e-01 3.209230197964802755e+01 -2.329157099520002272e-01 -6.070828256870405681e+01
-1.686570953932801586e+01 -2.381399875584002235e+00 -3.746024722022403353e+01 -2.383576657920002173e+00 -4.788485782732804807e+01 7.677511299072007134e+00 -3.746024722022403353e+01 7.677511299072007134e+00 -5.251269707366405015e+01
-2.208345679872001810e+01 8.424147640320007735e-01 1.218562751692800994e+01 8.424147640320007735e-01 -6.199258414694406127e+01 6.203829657600006264e+00 1.218562751692800994e+01 6.206006439936005314e+00 -4.261269100953603584e+01
-5.758895348121605196e+01 7.960493002752007996e+00 2.416228392960002302e-01 7.960493002752007996e+00 -3.572752848076803645e+01 6.704489594880006509e-01 2.416228392960002302e-01 6.704489594880006509e-01 -3.328953226444802738e+01
-3.973933832601603910e+01 -4.664844546048004581e+00 -1.242507357388801204e+01 -4.664844546048004581e+00 -3.565569466368003049e+01 -5.226454388736004653e+00 -1.242507357388801204e+01 -5.226454388736004653e+00 -4.621526577561603943e+01
-1.786702941388801591e+01 -3.687469277184003413e+00 6.090636976128005919e+00 -3.687469277184003413e+00 -1.721834827776001831e+01 -1.078377969254401059e+01 6.090636976128005919e+00 -1.078377969254401059e+01 -1.097969010278401036e+01
-3.959784747417603512e+01 -5.115438489600004912e-01 -1.704420569088001436e+00 -5.115438489600004912e-01 -4.502456583782404209e+01 3.763656658944003475e+00 -1.704420569088001436e+00 3.763656658944003475e+00 -2.769084809625602617e+01
-6.241270313779205736e+01 7.727577292800007491e+00 5.102377795584005504e+00 7.727577292800007491e+00 -2.962383081062402823e+01 -3.961743851520003745e-01 5.102377795584005504e+00 -3.961743851520003745e-01 -5.696639373312005539e+00
-1.783655446118401500e+01 1.532454764544001424e+00 1.197883319500801136e+01 1.532454764544001424e+00 -4.506810148454404441e+01 5.851190919168004712e+00 1.197883319500801136e+01 5.851190919168004712e+00 -2.224889225625602052e+01
-2.231854929100802210e+01 -1.221174890496001275e+01 7.871244926976006973e+00 -1.221174890496001275e+01 -3.260166904627202911e+01 1.016121994444801047e+01 7.871244926976006973e+00 1.016121994444801047e+01 -6.168783461990405925e+01
-3.487858336972803386e+01 -2.890766942208002455e+00 -7.159437103104006717e+00 -2.890766942208002455e+00 -3.633920431718403421e+01 -7.222563790848007592e+00 -7.161613885440006655e+00 -7.222563790848007592e+00 -2.579487068160002394e+00
-5.478961139712005490e+00 6.099344105472005673e+00 -1.084472959795201064e+01 6.099344105472005673e+00 -4.871638867968004050e+00 -6.393209720832006226e+00 -1.084472959795201064e+01 -6.393209720832006226e+00 -4.596493580697604386e+01
-2.666776039833602496e+01 5.209040130048005146e+00 -1.866155496652801915e+01 5.209040130048005146e+00 -4.452608268288004467e+01 1.610601250406401519e+01 -1.866155496652801915e+01 1.610601250406401519e+01 -5.059277505331204594e+01
-3.020938525900802674e+01 -1.351781830656001215e+00 1.428186890649601359e+01 -1.351781830656001215e+00 -3.342231598694402805e+01 -7.655743475712007751e+00 1.428186890649601359e+01 -7.655743475712007751e+00 -6.867748270080006101e+00
-4.935418590412804463e+01 -7.292220825600007394e+00 1.156306776883200982e+01 -7.292220825600007394e+00 -4.323960432230403939e+01 1.440376871731201192e+01 1.156306776883200982e+01 1.440376871731201192e+01 -4.325266501632003724e+01
-1.843952316825601656e+01 1.742296581734401784e+01 8.598290227200008351e-01 1.742296581734401784e+01 -2.818715446886402631e+01 -8.330545999872008167e+00 8.576522403840007858e-01 -8.330545999872008167e+00 -2.732732544614402315e+01
-2.159803433779202209e+01 -4.963063726080004789e-01 -3.593867636736002957e+00 -4.963063726080004789e-01 -1.817395572326401876e+01 1.111247382528001104e+01 -3.593867636736002957e+00 1.111247382528001104e+01 -1.972600152883201829e+01
-5.349007234252805176e+01 -1.478035206144001412e+00 1.824796632268801844e+01 -1.478035206144001412e+00 -5.828987739340805518e+01 1.418609048371201453e+01 1.824796632268801844e+01 1.418609048371201453e+01 -3.109315888742402834e+01
-2.951063812915202789e+01 2.448880128000002099e+00 9.092419817472009669e+00 2.448880128000002099e+00 -1.287349073510401176e+01 -1.960192493568002092e+01 9.092419817472009669e+00 -1.960192493568002092e+01 -1.753615849881601818e+01
-3.669184305561603310e+01 -2.829817036800002517e-01 1.140633944064001071e+01 -2.829817036800002517e-01 -2.946274891776002747e+01 2.209434071040002223e+00 1.140633944064001071e+01 2.209434071040002223e+00 -3.974804545536003531e+01
-3.592126210867203184e+01 1.208331874713601195e+01 -1.452131496345601391e+01 1.208331874713601195e+01 -2.624546462515202450e+01 -5.400596975616005047e+00 -1.452131496345601391e+01 -5.400596975616005047e+00 -4.032489277440003406e+01
-2.377046310912001914e+01 7.078896156672007223e+00 -9.577842278400008902e-02 7.078896156672007223e+00 -1.320436165017601304e+01 -2.498946121728002012e+00 -9.577842278400008902e-02 -2.498946121728002012e+00 -4.268452482662404179e+01
-2.940615257702402729e+01 2.042257187635201987e+01 -2.553365680128002246e+00 2.042257187635201987e+01 -3.775628961792003224e+01 -1.695713439744001461e+00 -2.553365680128002246e+00 -1.695713439744001461e+00 -2.745140203929602762e+01
-1.354611647692801313e+01 -7.964846567424006984e+00 4.129356091392003769e+00 -7.964846567424006984e+00 -4.149817845350403900e+01 -8.802907766784008103e+00 4.129356091392003769e+00 -8.802907766784008103e+00 -2.657198197555202768e+01
-2.630423774822402194e+01 -2.512006815744002530e+00 8.058448207872007885e+00 -2.512006815744002530e+00 -4.710556975104005062e+00 -6.225597480960005647e-01 8.058448207872007885e+00 -6.225597480960005647e-01 -6.466784963788805385e+01
-3.799355889254403706e+01 3.907324293120003400e+00 2.808049213440002578e-01 3.907324293120003400e+00 -3.139355484979203226e+01 7.927841267712007145e+00 2.808049213440002578e-01 7.927841267712007145e+00 -5.194891044864004925e+01
-1.803246487142401477e+01 5.903433695232005896e+00 3.395780444160003131e-01 5.903433695232005896e+00 -1.475858423808001341e+01 1.061181388800000924e+01 3.395780444160003131e-01 1.061181388800000924e+01 -2.463899926118402206e+01
-1.565324177817601559e+01 -4.066229403648003782e+00 3.193339686912002762e+00 -4.066229403648003782e+00 -2.510483068108802485e+01 -2.792594058854402661e+01 3.193339686912002762e+00 -2.792594058854402661e+01 -1.145858221670400923e+01
6.225597480960005647e-01 8.043210731520007428e+00 8.935691489280008781e+00 8.043210731520007428e+00 -2.240779736678402045e+01 1.041372669542401042e+01 8.935691489280008781e+00 1.041372669542401042e+01 -6.112404799488006191e+00
-5.037509681971204856e+01 2.157191294976001927e+01 3.265173504000003224e-02 2.157191294976001927e+01 -1.265581250150401083e+01 -3.859435081728003869e+00 3.265173504000003224e-02 -3.859435081728003869e+00 -2.631947522457602417e+01
-5.696639373312005539e+00 9.412406820864008594e+00 7.255215525888006667e+00 9.412406820864008594e+00 -2.893814437478402724e+01 1.645429767782401598e+01 7.255215525888006667e+00 1.645429767782401598e+01 -1.576861124198401320e+01
-1.797369174835201733e+01 1.410337275494401332e+01 1.965634449408002027e+00 1.410337275494401332e+01 -4.971335498956804599e+01 -4.893406691328004321e+00 1.965634449408002027e+00 -4.893406691328004321e+00 -5.305689265766405072e+01
-1.053562650624001007e+00 9.545190543360009272e+00 8.685361520640007882e+00 9.545190543360009272e+00 -1.572289881292801539e+01 2.359632052224001963e+00 8.685361520640007882e+00 2.359632052224001963e+00 -1.290396568780801267e+01
-2.805219396403202481e+01 7.596970352640007862e-01 -2.194196594688002122e+01 7.596970352640007862e-01 -3.465437478912003400e+01 1.226834524569601292e+01 -2.194196594688002122e+01 1.226834524569601292e+01 -3.668748949094403855e+01
-8.271772876800008445e-02 1.047249981849600964e+01 -1.541161893888001400e+00 1.047249981849600964e+01 -3.913854640128003837e+01 4.418868142080004113e-01 -1.541161893888001400e+00 4.418868142080004113e-01 -2.459111004979202164e+01
-3.549243598848003245e+01 -1.260356972544001231e+01 -1.479123597312001337e+01 -1.260356972544001231e+01 -4.765411889971203863e+01 -1.033100896665601098e+01 -1.479123597312001337e+01 -1.033100896665601098e+01 -6.929568888422406303e+01
-1.375944114585601419e+01 -6.919991046144006397e+00 2.345918323507202174e+01 -6.919991046144006397e+00 -3.293471674368002766e+01 -5.409304104960004800e+00 2.345918323507202174e+01 -5.409304104960004800e+00 -6.130254414643205507e+01
-6.371659575705605505e+01 -7.052774768640006187e+00 -1.408813527859201464e+01 -7.052774768640006187e+00 -4.900807751270404111e+01 -2.718801137664002443e+00 -1.408813527859201464e+01 -2.716624355328002505e+00 -4.714039826841604963e+01
-2.739262891622402663e+01 -3.197693251584003082e+00 2.518537162752002345e+00 -3.197693251584003082e+00 -1.927323080294402047e+01 2.287362878668801969e+01 2.518537162752002345e+00 2.287362878668801969e+01 -7.168144232448006470e+00
-5.259541480243204603e+01 -2.841789339648002866e+01 7.821178933248006615e+00 -2.841789339648002866e+01 -3.133042816204802961e+01 2.176782336000002063e-03 7.821178933248006615e+00 2.176782336000002063e-03 -1.707468064358401705e+01
-2.822851333324802781e+01 -1.070106196377601115e+01 -1.651089401856001615e+01 -1.070106196377601115e+01 -2.567297087078402384e+01 1.088391168000000953e+01 -1.651089401856001615e+01 1.088391168000000953e+01 -1.683305780428801768e+01
-3.885556469760003573e+00 -2.554889427763202292e+01 3.920384987136003918e+00 -2.554889427763202292e+01 -2.331116203622402239e+01 -5.899080130560004909e-01 3.920384987136003918e+00 -5.899080130560004909e-01 -1.584262184140801466e+01
-3.016584961228802797e+01 -4.003102715904003794e+00 -1.542903319756801395e+01 -4.003102715904003794e+00 -2.892943724544002837e+00 5.953499688960005365e+00 -1.542903319756801395e+01 5.953499688960005365e+00 -9.954425622528008333e+00
-3.008313188352002676e+00 -8.694068649984007635e+00 -6.937405304832006792e+00 -8.694068649984007635e+00 -2.110608152985602004e+01 8.271772876800008722e-01 -6.937405304832006792e+00 8.271772876800008722e-01 -2.430595156377602351e+01
-2.731426475212802529e+01 -1.969988014080001903e+00 -3.147627257856003169e+00 -1.969988014080001903e+00 -4.774989732249604657e+01 -5.513789657088005391e+00 -3.147627257856003169e+00 -5.513789657088005391e+00 -3.872495775744003765e+01
-1.939730739609601784e+01 6.280017039360005882e+00 9.492947767296008976e+00 6.280017039360005882e+00 -2.793682450022402719e+01 -6.643539689472006238e+00 9.492947767296008976e+00 -6.643539689472006238e+00 -3.140008519680003118e+01
-5.173776256204804724e+01 -2.178959118336001755e+00 -4.499409088512003940e+00 -2.178959118336001755e+00 -2.691373680230402599e+01 1.652830827724801566e+01 -4.499409088512003940e+00 1.652830827724801566e+01 -3.327211800576002787e+01
-3.676150009036803823e+01 2.329157099520002272e-01 4.921704861696004407e+00 2.350924922880002210e-01 -2.579922424627202204e+01 1.602982512230401468e+01 4.921704861696004407e+00 1.602982512230401468e+01 -4.775860445184004988e+01
-3.391209201254403638e+01 -5.637866250240005650e-01 4.625662464000004803e+00 -5.637866250240005650e-01 -2.008734739660802049e+01 -5.831599878144005267e+00 4.627839246336003853e+00 -5.831599878144005267e+00 -2.945404178841602771e+01
-2.011564556697601702e+01 2.873352683520002948e-01 8.685361520640007882e+00 2.873352683520002948e-01 -2.574698147020802352e+01 -4.969594073088003938e+00 8.685361520640007882e+00 -4.969594073088003938e+00 -5.064501782937604446e+01
-2.870305188249602679e+01 8.132458807296007564e+00 -1.162184089190401082e+01 8.132458807296007564e+00 -1.807817730048001792e+01 2.218576556851202142e+01 -1.162184089190401082e+01 2.218576556851202142e+01 -2.642178399436802394e+01
-2.909704948531202717e+01 1.586874322944001658e+00 -7.988791173120008082e+00 1.586874322944001658e+00 -5.096282805043204434e+01 5.230807953408005417e+00 -7.988791173120008082e+00 5.228631171072004591e+00 -5.028367196160004227e+01
-2.682666550886402490e+01 -7.387999248384006457e+00 -1.621702840320001560e+00 -7.387999248384006457e+00 -2.021360077209602224e+01 -8.889979060224007412e+00 -1.621702840320001560e+00 -8.889979060224007412e+00 -3.902970728448003968e+00
-5.918018136883205216e+01 4.007456280576003671e+00 1.077289578086401001e+01 4.007456280576003671e+00 -5.070596773478404629e+01 1.013509855641601121e+01 1.077289578086401001e+01 1.013509855641601121e+01 -3.170265794150403238e+01
-3.730134210969603004e+01 2.888590159872002960e+00 -4.179422085120004127e+00 2.886413377536002578e+00 -3.517027220275203803e+01 -7.975730479104007564e+00 -4.179422085120004127e+00 -7.975730479104007564e+00 -1.841557856256001546e+00
-4.000490577100803335e+01 -2.236208493772801731e+01 2.679619055616002665e+00 -2.236208493772801731e+01 -4.723617669120004336e+01 2.004816531456001627e+01 2.679619055616002665e+00 2.004816531456001627e+01 -6.062556483993606093e+01
-3.370094412595202726e+01 4.194659561472003695e+00 -1.101669540249601198e+01 4.194659561472003695e+00 -5.381223612825605329e+01 -5.992681771008005143e+00 -1.101669540249601198e+01 -5.992681771008005143e+00 -4.652872243200004476e+01
-4.196183309107203740e+01 -1.748609250508801694e+01 -7.174674579456006285e+00 -1.748609250508801694e+01 -2.473913124864002455e+01 3.228168204288003107e+00 -7.174674579456006285e+00 3.228168204288003107e+00 -1.348952013619201296e+01
-3.033128506982403039e+01 7.250861961216006790e+00 -6.493341708288006053e+00 7.250861961216006790e+00 -3.782812343500803820e+01 2.400990916608002124e+00 -6.493341708288006053e+00 2.400990916608002124e+00 -4.919963435827204989e+01
-3.660912532684803011e+01 -9.196905369600008484e+00 -5.679225114624006032e+00 -9.196905369600008484e+00 -1.666979912908801609e+01 -6.682721771520006016e+00 -5.679225114624006032e+00 -6.682721771520006016e+00 -1.083166890393601101e+01
-3.787601264640003684e-01 -1.164360871526401020e+01 -7.220387008512006766e+00 -1.164143193292801115e+01 -1.133668240588801090e+01 6.521639878656006140e+00 -7.220387008512006766e+00 6.521639878656006140e+00 -3.589514072064003614e+01
-5.616316105113605772e+01 -2.716624355328002505e+00 -8.032326819840007737e-01 -2.716624355328002505e+00 -2.406650550681602141e+01 -2.172428771328001940e+00 -8.032326819840007737e-01 -2.174605553664002322e+00 -4.386216407040004128e+01
-2.655456771686402462e+01 -1.854618550272001798e+01 1.197447963033601148e+01 -1.854618550272001798e+01 -4.951091423232004729e+01 -1.516999609958401507e+01 1.197447963033601148e+01 -1.516999609958401507e+01 -6.101956244275206132e+01
-2.895773541580802757e+01 9.858647199744009271e+00 6.689252118528006719e+00 9.858647199744009271e+00 -6.620683474944006264e+01 -7.091956850688006853e+00 6.689252118528006719e+00 -7.091956850688006853e+00 -1.086649742131201002e+01
-2.911664052633602751e+01 -2.836347383808002220e+00 7.788527198208007540e+00 -2.836347383808002220e+00 -3.767139510681602843e+01 -1.271240884224001277e+00 7.788527198208007540e+00 -1.271240884224001277e+00 -3.707060318208003480e+01
-4.470893239910404304e+01 1.673945616384001633e+00 6.406270414848005856e+00 1.676122398720001572e+00 -2.762119106150402814e+01 -9.133778681856009385e+00 6.406270414848005856e+00 -9.133778681856009385e+00 -5.486362199654405458e+01
-5.616098426880005157e+00 -2.091234790195201754e+01 8.132458807296007564e+00 -2.091234790195201754e+01 -1.028965010227200949e+01 1.699631647948801572e+01 8.132458807296007564e+00 1.699631647948801572e+01 4.943472685056004678e+00
-2.531815535001602413e+01 -4.429752053760004138e+00 -4.151123914752004040e+00 -4.429752053760004138e+00 -2.877270891724802837e+01 7.533843664896007652e+00 -4.151123914752004040e+00 7.533843664896007652e+00 5.328763158528005306e+00
6.758909153280006521e+00 -1.918398272716801856e+01 3.667878236160003524e+00 -1.918398272716801856e+01 -2.445397276262401931e+01 6.042747764736005500e+00 3.667878236160003524e+00 6.042747764736005500e+00 -2.507870929305602203e+01
-2.290845730406402225e+01 -4.762799751168004470e+00 -9.606140448768009321e+00 -4.764976533504004408e+00 -2.864427875942402935e+01 -8.230414012416007452e+00 -9.606140448768009321e+00 -8.230414012416007452e+00 -5.115220811366404519e+01
-3.675496974336003575e+01 -1.570113098956801423e+01 9.445058555904008557e+00 -1.570113098956801423e+01 -4.150688558284804230e+01 -4.653960634368004889e+00 9.445058555904008557e+00 -4.651783852032004063e+00 -2.362897225728002226e+01
-4.586480381952004137e+01 -8.946575400960007585e+00 -8.254358618112007662e+00 -8.948752183296008411e+00 -3.186156305203203232e+01 1.501979811840001289e-01 -8.254358618112007662e+00 1.501979811840001289e-01 -5.402773757952004985e+01
-5.071902842880004592e+00 3.480674955264003056e+00 8.474213634048007648e+00 3.480674955264003056e+00 -1.853312480870402013e+01 3.003959623680002800e+00 8.474213634048007648e+00 3.003959623680002800e+00 -2.409915724185601960e+01
-1.641293881344001448e+01 -3.630872936448003241e+00 -8.889979060224007412e+00 -3.630872936448003241e+00 -1.267975710720001281e+01 -5.796771360768005366e+00 -8.889979060224007412e+00 -5.796771360768005366e+00 -2.136511862784002247e+01
-4.546645265203203934e+01 -2.748623055667202308e+01 -1.742731938201601594e+01 -2.748623055667202308e+01 -1.397929616179201240e+01 8.402379816960008352e-01 -1.742731938201601594e+01 8.402379816960008352e-01 8.731073949696007475e+00
-8.328369217536007341e+00 5.796771360768005366e+00 8.337076346880007982e-01 5.796771360768005366e+00 -1.880086903603201876e+01 -1.013945212108800931e+01 8.337076346880007982e-01 -1.013945212108800931e+01 -3.746677756723203601e+01
-3.598438879641603449e+01 -1.929064506163201997e+01 -9.712802783232008963e+00 -1.929064506163201997e+01 -3.534659157196803392e+01 -4.190305996800003818e+00 -9.712802783232008963e+00 -4.190305996800003818e+00 -6.173137026662405447e+01
-4.230794148249603381e+01 9.162076852224009471e+00 1.117560051302401014e+01 9.162076852224009471e+00 -3.565787144601603131e+01 3.036611358720002762e+00 1.117560051302401014e+01 3.036611358720002762e+00 -1.016121994444801047e+01
1.965634449408002027e+00 5.785887449088005674e+00 -1.935159496704001780e+00 5.785887449088005674e+00 -1.002190587494400908e+01 -2.137164897484802140e+01 -1.935159496704001780e+00 -2.137164897484802140e+01 -2.709005617152002543e+01
-1.314341174476801299e+01 -4.828103221248004395e+00 8.733250732032008301e+00 -4.828103221248004395e+00 -4.297403687731203803e+01 1.599935016960001510e+00 8.733250732032008301e+00 1.599935016960001510e+00 -2.190931421184001948e+01
-3.182455775232002892e+01 -8.245651488768007908e+00 1.098404366745601024e+01 -8.245651488768007908e+00 -2.538998916710402654e+01 -5.650926944256005058e+00 1.098404366745601024e+01 -5.650926944256005058e+00 -4.840293202329604583e+01
-2.271472367616001975e+01 -9.351456915456010321e+00 2.612138803200002357e+00 -9.351456915456010321e+00 -3.756690955468803139e+01 1.368978411110401261e+01 2.612138803200002357e+00 1.368978411110401261e+01 -2.802171901132802745e+01
-4.141328394240004229e+01 -6.567352307712006620e+00 7.771112939520007368e-01 -6.567352307712006620e+00 -2.696162601369602285e+01 7.897366315008008009e+00 7.771112939520007368e-01 7.897366315008008009e+00 -4.715998930944004286e+01
-5.172905543270405104e+01 -1.615172493312001523e+00 3.822429782016003585e+00 -1.615172493312001523e+00 -5.307866048102404477e+01 2.118009212928002150e+00 3.822429782016003585e+00 2.118009212928002150e+00 -7.693837166592007293e+01
-5.283050729472005003e+01 1.371590549913601365e+01 8.400203034624007969e+00 1.371372871680001282e+01 -4.344639864422403974e+01 -1.231188089241600991e+01 8.400203034624007969e+00 -1.231188089241600991e+01 -8.046475905024007602e+01