1.311374499999999976e+01 0.000000000000000000e+00 0.000000000000000000e+00 0.000000000000000000e+00 1.550249600000000072e+01 0.000000000000000000e+00 0.000000000000000000e+00 0.000000000000000000e+00 1.455621189999999920e+01
1.318722400000000050e+01 0.000000000000000000e+00 0.000000000000000000e+00 0.000000000000000000e+00 1.523369699999999938e+01 0.000000000000000000e+00 0.000000000000000000e+00 0.000000000000000000e+00 1.471276699999999948e+01
1.342056700000000014e+01 0.000000000000000000e+00 0.000000000000000000e+00 0.000000000000000000e+00 1.533309900000000070e+01 0.000000000000000000e+00 0.000000000000000000e+00 0.000000000000000000e+00 1.472651079999999979e+01
1.338679830000000059e+01 0.000000000000000000e+00 0.000000000000000000e+00 0.000000000000000000e+00 1.521008299999999913e+01 0.000000000000000000e+00 0.000000000000000000e+00 0.000000000000000000e+00 1.460820260000000026e+01
1.331643790000000038e+01 0.000000000000000000e+00 0.000000000000000000e+00 0.000000000000000000e+00 1.545165670999999996e+01 0.000000000000000000e+00 0.000000000000000000e+00 0.000000000000000000e+00 1.443801990000000046e+01
1.328793199999999963e+01 0.000000000000000000e+00 0.000000000000000000e+00 0.000000000000000000e+00 1.523353200000000029e+01 0.000000000000000000e+00 0.000000000000000000e+00 0.000000000000000000e+00 1.456698811000000049e+01
1.335806589999999971e+01 0.000000000000000000e+00 0.000000000000000000e+00 0.000000000000000000e+00 1.530255140000000047e+01 0.000000000000000000e+00 0.000000000000000000e+00 0.000000000000000000e+00 1.445826600000000006e+01
1.315447099999999914e+01 0.000000000000000000e+00 0.000000000000000000e+00 0.000000000000000000e+00 1.554532550000000057e+01 0.000000000000000000e+00 0.000000000000000000e+00 0.000000000000000000e+00 1.483585000000000065e+01
1.348210830000000016e+01 0.000000000000000000e+00 0.000000000000000000e+00 0.000000000000000000e+00 1.504207700000000081e+01 0.000000000000000000e+00 0.000000000000000000e+00 0.000000000000000000e+00 1.461699669999999962e+01
1.335569699999999926e+01 0.000000000000000000e+00 0.000000000000000000e+00 0.000000000000000000e+00 1.521355199999999996e+01 0.000000000000000000e+00 0.000000000000000000e+00 0.000000000000000000e+00 1.478421952000000061e+01
1.330916299999999985e+01 0.000000000000000000e+00 0.000000000000000000e+00 0.000000000000000000e+00 1.541872799999999977e+01 0.000000000000000000e+00 0.000000000000000000e+00 0.000000000000000000e+00 1.450810929999999921e+01
1.326581050000000062e+01 0.000000000000000000e+00 0.000000000000000000e+00 0.000000000000000000e+00 1.523269600000000068e+01 0.000000000000000000e+00 0.000000000000000000e+00 0.000000000000000000e+00 1.472049200000000013e+01
1.336226190000000003e+01 0.000000000000000000e+00 0.000000000000000000e+00 0.000000000000000000e+00 1.540243240000000036e+01 0.000000000000000000e+00 0.000000000000000000e+00 0.000000000000000000e+00 1.460514150000000022e+01
1.332775600000000082e+01 0.000000000000000000e+00 0.000000000000000000e+00 0.000000000000000000e+00 1.546358619999999995e+01 0.000000000000000000e+00 0.000000000000000000e+00 0.000000000000000000e+00 1.447718120000000042e+01
1.330776700000000012e+01 0.000000000000000000e+00 0.000000000000000000e+00 0.000000000000000000e+00 1.534709100000000070e+01 0.000000000000000000e+00 0.000000000000000000e+00 0.000000000000000000e+00 1.463263829999999999e+01
1.331550099999999937e+01 0.000000000000000000e+00 0.000000000000000000e+00 0.000000000000000000e+00 1.534512299999999918e+01 0.000000000000000000e+00 0.000000000000000000e+00 0.000000000000000000e+00 1.452505440000000014e+01
1.310792000000000002e+01 0.000000000000000000e+00 0.000000000000000000e+00 0.000000000000000000e+00 1.522634700000000052e+01 0.000000000000000000e+00 0.000000000000000000e+00 0.000000000000000000e+00 1.471666699999999928e+01
1.294585189999999919e+01 0.000000000000000000e+00 0.000000000000000000e+00 0.000000000000000000e+00 1.559704679999999932e+01 0.000000000000000000e+00 0.000000000000000000e+00 0.000000000000000000e+00 1.448909790000000086e+01
1.342377719999999997e+01 0.000000000000000000e+00 0.000000000000000000e+00 0.000000000000000000e+00 1.506113999999999997e+01 0.000000000000000000e+00 0.000000000000000000e+00 0.000000000000000000e+00 1.444066149999999915e+01
1.344876600000000089e+01 0.000000000000000000e+00 0.000000000000000000e+00 0.000000000000000000e+00 1.511974999999999980e+01 0.000000000000000000e+00 0.000000000000000000e+00 0.000000000000000000e+00 1.452529730000000008e+01
1.314814299999999925e+01 0.000000000000000000e+00 0.000000000000000000e+00 0.000000000000000000e+00 1.529629100000000008e+01 0.000000000000000000e+00 0.000000000000000000e+00 0.000000000000000000e+00 1.462431300000000078e+01
1.343774409999999975e+01 0.000000000000000000e+00 0.000000000000000000e+00 0.000000000000000000e+00 1.507454500000000053e+01 0.000000000000000000e+00 0.000000000000000000e+00 0.000000000000000000e+00 1.462530789999999925e+01
1.342922929999999937e+01 0.000000000000000000e+00 0.000000000000000000e+00 0.000000000000000000e+00 1.512098899999999979e+01 0.000000000000000000e+00 0.000000000000000000e+00 0.000000000000000000e+00 1.462669269999999955e+01
1.332316190999999961e+01 0.000000000000000000e+00 0.000000000000000000e+00 0.000000000000000000e+00 1.527973199999999920e+01 0.000000000000000000e+00 0.000000000000000000e+00 0.000000000000000000e+00 1.460452760000000083e+01
1.327613320000000030e+01 0.000000000000000000e+00 0.000000000000000000e+00 0.000000000000000000e+00 1.545088699999999982e+01 0.000000000000000000e+00 0.000000000000000000e+00 0.000000000000000000e+00 1.472887779999999935e+01
1.332282599999999917e+01 0.000000000000000000e+00 0.000000000000000000e+00 0.000000000000000000e+00 1.539541889999999924e+01 0.000000000000000000e+00 0.000000000000000000e+00 0.000000000000000000e+00 1.458139348999999996e+01
1.348408060000000042e+01 0.000000000000000000e+00 0.000000000000000000e+00 0.000000000000000000e+00 1.520920399999999972e+01 0.000000000000000000e+00 0.000000000000000000e+00 0.000000000000000000e+00 1.460112095000000032e+01
1.300980000000000025e+01 0.000000000000000000e+00 0.000000000000000000e+00 0.000000000000000000e+00 1.540869200000000028e+01 0.000000000000000000e+00 0.000000000000000000e+00 0.000000000000000000e+00 1.465899639999999948e+01
1.323472199999999965e+01 0.000000000000000000e+00 0.000000000000000000e+00 0.000000000000000000e+00 1.534071020000000019e+01 0.000000000000000000e+00 0.000000000000000000e+00 0.000000000000000000e+00 1.459014759999999988e+01
1.325451250000000059e+01 0.000000000000000000e+00 0.000000000000000000e+00 0.000000000000000000e+00 1.550165390000000087e+01 0.000000000000000000e+00 0.000000000000000000e+00 0.000000000000000000e+00 1.452336219999999933e+01
1.325601200000000013e+01 0.000000000000000000e+00 0.000000000000000000e+00 0.000000000000000000e+00 1.537562499999999943e+01 0.000000000000000000e+00 0.000000000000000000e+00 0.000000000000000000e+00 1.465917400000000015e+01
1.324557500000000054e+01 0.000000000000000000e+00 0.000000000000000000e+00 0.000000000000000000e+00 1.511901199999999967e+01 0.000000000000000000e+00 0.000000000000000000e+00 0.000000000000000000e+00 1.483155799999999935e+01
1.328889200000000059e+01 0.000000000000000000e+00 0.000000000000000000e+00 0.000000000000000000e+00 1.556201141999999926e+01 0.000000000000000000e+00 0.000000000000000000e+00 0.000000000000000000e+00 1.442020486999999918e+01
1.346381782999999999e+01 0.000000000000000000e+00 0.000000000000000000e+00 0.000000000000000000e+00 1.534748160000000006e+01 0.000000000000000000e+00 0.000000000000000000e+00 0.000000000000000000e+00 1.450928889999999960e+01
1.320841700000000074e+01 0.000000000000000000e+00 0.000000000000000000e+00 0.000000000000000000e+00 1.540973140000000008e+01 0.000000000000000000e+00 0.000000000000000000e+00 0.000000000000000000e+00 1.440402659999999990e+01
1.330348799999999976e+01 0.000000000000000000e+00 0.000000000000000000e+00 0.000000000000000000e+00 1.520240899999999939e+01 0.000000000000000000e+00 0.000000000000000000e+00 0.000000000000000000e+00 1.464219180000000087e+01
1.312929500000000083e+01 0.000000000000000000e+00 0.000000000000000000e+00 0.000000000000000000e+00 1.549730530000000073e+01 0.000000000000000000e+00 0.000000000000000000e+00 0.000000000000000000e+00 1.462926810000000089e+01
1.346556610000000020e+01 0.000000000000000000e+00 0.000000000000000000e+00 0.000000000000000000e+00 1.523801899999999954e+01 0.000000000000000000e+00 0.000000000000000000e+00 0.000000000000000000e+00 1.446460940000000051e+01
1.311500099999999946e+01 0.000000000000000000e+00 0.000000000000000000e+00 0.000000000000000000e+00 1.543584839999999936e+01 0.000000000000000000e+00 0.000000000000000000e+00 0.000000000000000000e+00 1.473995000000000033e+01
1.324309240000000010e+01 0.000000000000000000e+00 0.000000000000000000e+00 0.000000000000000000e+00 1.552049580000000084e+01 0.000000000000000000e+00 0.000000000000000000e+00 0.000000000000000000e+00 1.448282983000000002e+01
1.313254300000000008e+01 0.000000000000000000e+00 0.000000000000000000e+00 0.000000000000000000e+00 1.518103100000000083e+01 0.000000000000000000e+00 0.000000000000000000e+00 0.000000000000000000e+00 1.465767959999999981e+01
1.330831470000000039e+01 0.000000000000000000e+00 0.000000000000000000e+00 0.000000000000000000e+00 1.527722029999999975e+01 0.000000000000000000e+00 0.000000000000000000e+00 0.000000000000000000e+00 1.460790459999999946e+01
1.339682829999999925e+01 0.000000000000000000e+00 0.000000000000000000e+00 0.000000000000000000e+00 1.518361999999999945e+01 0.000000000000000000e+00 0.000000000000000000e+00 0.000000000000000000e+00 1.459631519999999938e+01
1.332700389999999935e+01 0.000000000000000000e+00 0.000000000000000000e+00 0.000000000000000000e+00 1.522277500000000039e+01 0.000000000000000000e+00 0.000000000000000000e+00 0.000000000000000000e+00 1.457286440000000027e+01
1.340048915999999934e+01 0.000000000000000000e+00 0.000000000000000000e+00 0.000000000000000000e+00 1.553719830000000002e+01 0.000000000000000000e+00 0.000000000000000000e+00 0.000000000000000000e+00 1.431834399999999974e+01
1.320990079999999978e+01 0.000000000000000000e+00 0.000000000000000000e+00 0.000000000000000000e+00 1.529661100000000040e+01 0.000000000000000000e+00 0.000000000000000000e+00 0.000000000000000000e+00 1.464702699999999957e+01
1.316596200000000039e+01 0.000000000000000000e+00 0.000000000000000000e+00 0.000000000000000000e+00 1.556526410000000027e+01 0.000000000000000000e+00 0.000000000000000000e+00 0.000000000000000000e+00 1.465058190000000060e+01
1.341195139999999952e+01 0.000000000000000000e+00 0.000000000000000000e+00 0.000000000000000000e+00 1.538472810000000024e+01 0.000000000000000000e+00 0.000000000000000000e+00 0.000000000000000000e+00 1.444526600000000016e+01
1.322381260000000047e+01 0.000000000000000000e+00 0.000000000000000000e+00 0.000000000000000000e+00 1.554439230000000016e+01 0.000000000000000000e+00 0.000000000000000000e+00 0.000000000000000000e+00 1.454941320000000005e+01
1.303251400000000082e+01 0.000000000000000000e+00 0.000000000000000000e+00 0.000000000000000000e+00 1.548916649999999962e+01 0.000000000000000000e+00 0.000000000000000000e+00 0.000000000000000000e+00 1.453890499999999975e+01
1.321451099999999990e+01 0.000000000000000000e+00 0.000000000000000000e+00 0.000000000000000000e+00 1.536214020000000069e+01 0.000000000000000000e+00 0.000000000000000000e+00 0.000000000000000000e+00 1.461128129999999992e+01
1.312267300000000070e+01 0.000000000000000000e+00 0.000000000000000000e+00 0.000000000000000000e+00 1.538597779999999915e+01 0.000000000000000000e+00 0.000000000000000000e+00 0.000000000000000000e+00 1.468853050000000060e+01
1.336452549999999917e+01 0.000000000000000000e+00 0.000000000000000000e+00 0.000000000000000000e+00 1.505950799999999923e+01 0.000000000000000000e+00 0.000000000000000000e+00 0.000000000000000000e+00 1.452520130000000087e+01
1.335735490000000070e+01 0.000000000000000000e+00 0.000000000000000000e+00 0.000000000000000000e+00 1.511607099999999981e+01 0.000000000000000000e+00 0.000000000000000000e+00 0.000000000000000000e+00 1.479324100000000008e+01
1.339480220000000088e+01 0.000000000000000000e+00 0.000000000000000000e+00 0.000000000000000000e+00 1.506168000000000085e+01 0.000000000000000000e+00 0.000000000000000000e+00 0.000000000000000000e+00 1.454969900000000038e+01
1.327774679999999918e+01 0.000000000000000000e+00 0.000000000000000000e+00 0.000000000000000000e+00 1.533769799999999961e+01 0.000000000000000000e+00 0.000000000000000000e+00 0.000000000000000000e+00 1.475884190000000018e+01
1.317495500000000064e+01 0.000000000000000000e+00 0.000000000000000000e+00 0.000000000000000000e+00 1.532018500000000039e+01 0.000000000000000000e+00 0.000000000000000000e+00 0.000000000000000000e+00 1.438029281000000026e+01
1.322033899999999917e+01 0.000000000000000000e+00 0.000000000000000000e+00 0.000000000000000000e+00 1.542596699999999998e+01 0.000000000000000000e+00 0.000000000000000000e+00 0.000000000000000000e+00 1.471027690000000021e+01
1.317278349999999953e+01 0.000000000000000000e+00 0.000000000000000000e+00 0.000000000000000000e+00 1.534456600000000037e+01 0.000000000000000000e+00 0.000000000000000000e+00 0.000000000000000000e+00 1.453888629999999971e+01
1.335559590000000085e+01 0.000000000000000000e+00 0.000000000000000000e+00 0.000000000000000000e+00 1.523345600000000033e+01 0.000000000000000000e+00 0.000000000000000000e+00 0.000000000000000000e+00 1.455754450000000055e+01
1.348111193999999990e+01 0.000000000000000000e+00 0.000000000000000000e+00 0.000000000000000000e+00 1.516004799999999975e+01 0.000000000000000000e+00 0.000000000000000000e+00 0.000000000000000000e+00 1.461323409999999967e+01
1.335974829999999969e+01 0.000000000000000000e+00 0.000000000000000000e+00 0.000000000000000000e+00 1.507764099999999985e+01 0.000000000000000000e+00 0.000000000000000000e+00 0.000000000000000000e+00 1.472370300000000043e+01
1.339899239999999914e+01 0.000000000000000000e+00 0.000000000000000000e+00 0.000000000000000000e+00 1.524713400000000085e+01 0.000000000000000000e+00 0.000000000000000000e+00 0.000000000000000000e+00 1.479026900000000033e+01
1.324573900000000037e+01 0.000000000000000000e+00 0.000000000000000000e+00 0.000000000000000000e+00 1.554647749999999995e+01 0.000000000000000000e+00 0.000000000000000000e+00 0.000000000000000000e+00 1.465127159999999940e+01
1.315535799999999966e+01 0.000000000000000000e+00 0.000000000000000000e+00 0.000000000000000000e+00 1.536363449999999986e+01 0.000000000000000000e+00 0.000000000000000000e+00 0.000000000000000000e+00 1.463902460000000083e+01
1.324298300000000062e+01 0.000000000000000000e+00 0.000000000000000000e+00 0.000000000000000000e+00 1.527411749999999913e+01 0.000000000000000000e+00 0.000000000000000000e+00 0.000000000000000000e+00 1.454126650000000076e+01
1.334564830000000057e+01 0.000000000000000000e+00 0.000000000000000000e+00 0.000000000000000000e+00 1.526495700000000078e+01 0.000000000000000000e+00 0.000000000000000000e+00 0.000000000000000000e+00 1.451149370000000083e+01
1.319222300000000025e+01 0.000000000000000000e+00 0.000000000000000000e+00 0.000000000000000000e+00 1.542349199999999954e+01 0.000000000000000000e+00 0.000000000000000000e+00 0.000000000000000000e+00 1.471132700000000071e+01
1.322841149999999999e+01 0.000000000000000000e+00 0.000000000000000000e+00 0.000000000000000000e+00 1.529674999999999940e+01 0.000000000000000000e+00 0.000000000000000000e+00 0.000000000000000000e+00 1.472864399999999918e+01
1.339265999999999934e+01 0.000000000000000000e+00 0.000000000000000000e+00 0.000000000000000000e+00 1.512795000000000023e+01 0.000000000000000000e+00 0.000000000000000000e+00 0.000000000000000000e+00 1.463281899999999958e+01
1.323918500000000087e+01 0.000000000000000000e+00 0.000000000000000000e+00 0.000000000000000000e+00 1.541421199999999914e+01 0.000000000000000000e+00 0.000000000000000000e+00 0.000000000000000000e+00 1.451403460000000045e+01
1.338878960000000085e+01 0.000000000000000000e+00 0.000000000000000000e+00 0.000000000000000000e+00 1.530183500000000052e+01 0.000000000000000000e+00 0.000000000000000000e+00 0.000000000000000000e+00 1.449170149999999957e+01
1.335057089999999924e+01 0.000000000000000000e+00 0.000000000000000000e+00 0.000000000000000000e+00 1.521023600000000009e+01 0.000000000000000000e+00 0.000000000000000000e+00 0.000000000000000000e+00 1.471839139999999979e+01
1.335467060000000039e+01 0.000000000000000000e+00 0.000000000000000000e+00 0.000000000000000000e+00 1.515457199999999993e+01 0.000000000000000000e+00 0.000000000000000000e+00 0.000000000000000000e+00 1.458200010000000013e+01
1.330927900000000008e+01 0.000000000000000000e+00 0.000000000000000000e+00 0.000000000000000000e+00 1.539829609999999960e+01 0.000000000000000000e+00 0.000000000000000000e+00 0.000000000000000000e+00 1.446226680000000009e+01
1.316119300000000081e+01 0.000000000000000000e+00 0.000000000000000000e+00 0.000000000000000000e+00 1.547339689999999912e+01 0.000000000000000000e+00 0.000000000000000000e+00 0.000000000000000000e+00 1.464771000000000001e+01
1.329568199999999933e+01 0.000000000000000000e+00 0.000000000000000000e+00 0.000000000000000000e+00 1.534008000000000038e+01 0.000000000000000000e+00 0.000000000000000000e+00 0.000000000000000000e+00 1.450863149999999990e+01
1.318524859999999954e+01 0.000000000000000000e+00 0.000000000000000000e+00 0.000000000000000000e+00 1.542583199999999977e+01 0.000000000000000000e+00 0.000000000000000000e+00 0.000000000000000000e+00 1.462781739999999964e+01
1.339372599999999913e+01 0.000000000000000000e+00 0.000000000000000000e+00 0.000000000000000000e+00 1.537851799999999969e+01 0.000000000000000000e+00 0.000000000000000000e+00 0.000000000000000000e+00 1.473836200000000041e+01
1.300632799999999989e+01 0.000000000000000000e+00 0.000000000000000000e+00 0.000000000000000000e+00 1.562017280000000063e+01 0.000000000000000000e+00 0.000000000000000000e+00 0.000000000000000000e+00 1.449432340000000075e+01
1.350513300000000072e+01 0.000000000000000000e+00 0.000000000000000000e+00 0.000000000000000000e+00 1.517056220000000089e+01 0.000000000000000000e+00 0.000000000000000000e+00 0.000000000000000000e+00 1.461213039999999985e+01
1.304251600000000089e+01 0.000000000000000000e+00 0.000000000000000000e+00 0.000000000000000000e+00 1.553165139999999944e+01 0.000000000000000000e+00 0.000000000000000000e+00 0.000000000000000000e+00 1.482245699999999999e+01
1.342459910000000001e+01 0.000000000000000000e+00 0.000000000000000000e+00 0.000000000000000000e+00 1.516643200000000036e+01 0.000000000000000000e+00 0.000000000000000000e+00 0.000000000000000000e+00 1.458259405000000086e+01
1.349179980000000079e+01 0.000000000000000000e+00 0.000000000000000000e+00 0.000000000000000000e+00 1.501958600000000033e+01 0.000000000000000000e+00 0.000000000000000000e+00 0.000000000000000000e+00 1.453739799999999960e+01
1.333253704999999911e+01 0.000000000000000000e+00 0.000000000000000000e+00 0.000000000000000000e+00 1.536318999999999946e+01 0.000000000000000000e+00 0.000000000000000000e+00 0.000000000000000000e+00 1.462061199999999950e+01
1.319518419999999992e+01 0.000000000000000000e+00 0.000000000000000000e+00 0.000000000000000000e+00 1.536836100000000016e+01 0.000000000000000000e+00 0.000000000000000000e+00 0.000000000000000000e+00 1.453336159999999921e+01
1.359605159000000008e+01 0.000000000000000000e+00 0.000000000000000000e+00 0.000000000000000000e+00 1.534530099999999919e+01 0.000000000000000000e+00 0.000000000000000000e+00 0.000000000000000000e+00 1.435213300000000025e+01
1.326849930000000022e+01 0.000000000000000000e+00 0.000000000000000000e+00 0.000000000000000000e+00 1.544623449999999920e+01 0.000000000000000000e+00 0.000000000000000000e+00 0.000000000000000000e+00 1.459593500000000077e+01
1.355342920000000007e+01 0.000000000000000000e+00 0.000000000000000000e+00 0.000000000000000000e+00 1.512712800000000080e+01 0.000000000000000000e+00 0.000000000000000000e+00 0.000000000000000000e+00 1.453513300000000008e+01
1.332048499999999969e+01 0.000000000000000000e+00 0.000000000000000000e+00 0.000000000000000000e+00 1.547329099999999968e+01 0.000000000000000000e+00 0.000000000000000000e+00 0.000000000000000000e+00 1.470507259999999938e+01
1.320300010000000057e+01 0.000000000000000000e+00 0.000000000000000000e+00 0.000000000000000000e+00 1.541929200000000044e+01 0.000000000000000000e+00 0.000000000000000000e+00 0.000000000000000000e+00 1.477280400000000071e+01
1.316249999999999964e+01 0.000000000000000000e+00 0.000000000000000000e+00 0.000000000000000000e+00 1.537451770000000018e+01 0.000000000000000000e+00 0.000000000000000000e+00 0.000000000000000000e+00 1.473911299999999969e+01
1.325550040000000074e+01 0.000000000000000000e+00 0.000000000000000000e+00 0.000000000000000000e+00 1.530336499999999944e+01 0.000000000000000000e+00 0.000000000000000000e+00 0.000000000000000000e+00 1.470423800000000014e+01
1.323561291000000040e+01 0.000000000000000000e+00 0.000000000000000000e+00 0.000000000000000000e+00 1.520308600000000077e+01 0.000000000000000000e+00 0.000000000000000000e+00 0.000000000000000000e+00 1.466476690000000005e+01
1.355276250000000005e+01 0.000000000000000000e+00 0.000000000000000000e+00 0.000000000000000000e+00 1.535566299999999984e+01 0.000000000000000000e+00 0.000000000000000000e+00 0.000000000000000000e+00 1.434452500000000086e+01
1.318305609999999994e+01 0.000000000000000000e+00 0.000000000000000000e+00 0.000000000000000000e+00 1.547501369999999987e+01 0.000000000000000000e+00 0.000000000000000000e+00 0.000000000000000000e+00 1.450950270000000053e+01
1.335072270000000039e+01 0.000000000000000000e+00 0.000000000000000000e+00 0.000000000000000000e+00 1.519748000000000054e+01 0.000000000000000000e+00 0.000000000000000000e+00 0.000000000000000000e+00 1.468316749999999971e+01
1.343766210000000072e+01 0.000000000000000000e+00 0.000000000000000000e+00 0.000000000000000000e+00 1.542801359999999988e+01 0.000000000000000000e+00 0.000000000000000000e+00 0.000000000000000000e+00 1.435069879999999998e+01
1.344525499999999951e+01 0.000000000000000000e+00 0.000000000000000000e+00 0.000000000000000000e+00 1.513984699999999961e+01 0.000000000000000000e+00 0.000000000000000000e+00 0.000000000000000000e+00 1.440930479999999925e+01
1.330035799999999924e+01 0.000000000000000000e+00 0.000000000000000000e+00 0.000000000000000000e+00 1.527480399999999960e+01 0.000000000000000000e+00 0.000000000000000000e+00 0.000000000000000000e+00 1.452026569999999950e+01
1.316191099999999992e+01 0.000000000000000000e+00 0.000000000000000000e+00 0.000000000000000000e+00 1.540034909999999968e+01 0.000000000000000000e+00 0.000000000000000000e+00 0.000000000000000000e+00 1.459435241000000083e+01
1.318612300000000026e+01 0.000000000000000000e+00 0.000000000000000000e+00 0.000000000000000000e+00 1.558315890000000081e+01 0.000000000000000000e+00 0.000000000000000000e+00 0.000000000000000000e+00 1.461451560000000072e+01
1.333203501999999929e+01 0.000000000000000000e+00 0.000000000000000000e+00 0.000000000000000000e+00 1.534383500000000033e+01 0.000000000000000000e+00 0.000000000000000000e+00 0.000000000000000000e+00 1.464322699999999955e+01
1.323653840000000059e+01 0.000000000000000000e+00 0.000000000000000000e+00 0.000000000000000000e+00 1.539879020000000054e+01 0.000000000000000000e+00 0.000000000000000000e+00 0.000000000000000000e+00 1.467329570000000061e+01
1.310748800000000003e+01 0.000000000000000000e+00 0.000000000000000000e+00 0.000000000000000000e+00 1.557403700000000057e+01 0.000000000000000000e+00 0.000000000000000000e+00 0.000000000000000000e+00 1.455602155000000053e+01
1.332285139999999934e+01 0.000000000000000000e+00 0.000000000000000000e+00 0.000000000000000000e+00 1.543321420000000010e+01 0.000000000000000000e+00 0.000000000000000000e+00 0.000000000000000000e+00 1.444322000000000017e+01
1.324083800000000011e+01 0.000000000000000000e+00 0.000000000000000000e+00 0.000000000000000000e+00 1.533931429999999985e+01 0.000000000000000000e+00 0.000000000000000000e+00 0.000000000000000000e+00 1.449440339999999949e+01
1.326114800000000038e+01 0.000000000000000000e+00 0.000000000000000000e+00 0.000000000000000000e+00 1.553078033999999974e+01 0.000000000000000000e+00 0.000000000000000000e+00 0.000000000000000000e+00 1.453795603999999919e+01
1.327739099999999972e+01 0.000000000000000000e+00 0.000000000000000000e+00 0.000000000000000000e+00 1.525226720000000036e+01 0.000000000000000000e+00 0.000000000000000000e+00 0.000000000000000000e+00 1.444754179999999977e+01
1.325577499999999986e+01 0.000000000000000000e+00 0.000000000000000000e+00 0.000000000000000000e+00 1.522957300000000025e+01 0.000000000000000000e+00 0.000000000000000000e+00 0.000000000000000000e+00 1.461973949999999967e+01
1.328483139999999985e+01 0.000000000000000000e+00 0.000000000000000000e+00 0.000000000000000000e+00 1.533683899999999944e+01 0.000000000000000000e+00 0.000000000000000000e+00 0.000000000000000000e+00 1.460940169999999938e+01
1.341625819999999969e+01 0.000000000000000000e+00 0.000000000000000000e+00 0.000000000000000000e+00 1.506982999999999961e+01 0.000000000000000000e+00 0.000000000000000000e+00 0.000000000000000000e+00 1.457188879999999997e+01
1.331078349999999944e+01 0.000000000000000000e+00 0.000000000000000000e+00 0.000000000000000000e+00 1.517264199999999974e+01 0.000000000000000000e+00 0.000000000000000000e+00 0.000000000000000000e+00 1.474960599999999999e+01
1.348046910999999959e+01 0.000000000000000000e+00 0.000000000000000000e+00 0.000000000000000000e+00 1.508009700000000031e+01 0.000000000000000000e+00 0.000000000000000000e+00 0.000000000000000000e+00 1.467888499999999929e+01
1.347078789999999948e+01 0.000000000000000000e+00 0.000000000000000000e+00 0.000000000000000000e+00 1.529083999999999932e+01 0.000000000000000000e+00 0.000000000000000000e+00 0.000000000000000000e+00 1.450537682000000039e+01
1.341823899999999981e+01 0.000000000000000000e+00 0.000000000000000000e+00 0.000000000000000000e+00 1.546931730000000016e+01 0.000000000000000000e+00 0.000000000000000000e+00 0.000000000000000000e+00 1.453958040000000018e+01
1.333409400000000034e+01 0.000000000000000000e+00 0.000000000000000000e+00 0.000000000000000000e+00 1.517246100000000020e+01 0.000000000000000000e+00 0.000000000000000000e+00 0.000000000000000000e+00 1.455212479999999964e+01
1.322323500000000074e+01 0.000000000000000000e+00 0.000000000000000000e+00 0.000000000000000000e+00 1.538833200000000012e+01 0.000000000000000000e+00 0.000000000000000000e+00 0.000000000000000000e+00 1.472481699999999982e+01
1.329334300000000013e+01 0.000000000000000000e+00 0.000000000000000000e+00 0.000000000000000000e+00 1.531351890000000004e+01 0.000000000000000000e+00 0.000000000000000000e+00 0.000000000000000000e+00 1.439265490000000014e+01
1.323910099999999979e+01 0.000000000000000000e+00 0.000000000000000000e+00 0.000000000000000000e+00 1.533957999999999977e+01 0.000000000000000000e+00 0.000000000000000000e+00 0.000000000000000000e+00 1.473022184000000046e+01
1.312928699999999971e+01 0.000000000000000000e+00 0.000000000000000000e+00 0.000000000000000000e+00 1.525958699999999979e+01 0.000000000000000000e+00 0.000000000000000000e+00 0.000000000000000000e+00 1.469584479999999971e+01
1.336321550000000080e+01 0.000000000000000000e+00 0.000000000000000000e+00 0.000000000000000000e+00 1.551304230000000040e+01 0.000000000000000000e+00 0.000000000000000000e+00 0.000000000000000000e+00 1.452532964000000071e+01
1.325934059999999981e+01 0.000000000000000000e+00 0.000000000000000000e+00 0.000000000000000000e+00 1.545451800000000020e+01 0.000000000000000000e+00 0.000000000000000000e+00 0.000000000000000000e+00 1.455235389999999995e+01
1.339565080000000030e+01 0.000000000000000000e+00 0.000000000000000000e+00 0.000000000000000000e+00 1.527904900000000055e+01 0.000000000000000000e+00 0.000000000000000000e+00 0.000000000000000000e+00 1.453982910000000039e+01
1.314579200000000014e+01 0.000000000000000000e+00 0.000000000000000000e+00 0.000000000000000000e+00 1.528524600000000078e+01 0.000000000000000000e+00 0.000000000000000000e+00 0.000000000000000000e+00 1.467157540000000004e+01
1.340206359999999997e+01 0.000000000000000000e+00 0.000000000000000000e+00 0.000000000000000000e+00 1.532677149999999955e+01 0.000000000000000000e+00 0.000000000000000000e+00 0.000000000000000000e+00 1.441178479999999951e+01
1.314098399999999955e+01 0.000000000000000000e+00 0.000000000000000000e+00 0.000000000000000000e+00 1.529174399999999956e+01 0.000000000000000000e+00 0.000000000000000000e+00 0.000000000000000000e+00 1.465735098999999941e+01
1.316423329999999936e+01 0.000000000000000000e+00 0.000000000000000000e+00 0.000000000000000000e+00 1.546342120000000087e+01 0.000000000000000000e+00 0.000000000000000000e+00 0.000000000000000000e+00 1.462407299999999921e+01
1.332674880000000073e+01 0.000000000000000000e+00 0.000000000000000000e+00 0.000000000000000000e+00 1.527245130000000017e+01 0.000000000000000000e+00 0.000000000000000000e+00 0.000000000000000000e+00 1.457130620000000043e+01
1.323814199999999985e+01 0.000000000000000000e+00 0.000000000000000000e+00 0.000000000000000000e+00 1.535491799999999962e+01 0.000000000000000000e+00 0.000000000000000000e+00 0.000000000000000000e+00 1.458553649999999990e+01
1.317807400000000051e+01 0.000000000000000000e+00 0.000000000000000000e+00 0.000000000000000000e+00 1.534749200000000080e+01 0.000000000000000000e+00 0.000000000000000000e+00 0.000000000000000000e+00 1.459452270000000063e+01
1.305298900000000017e+01 0.000000000000000000e+00 0.000000000000000000e+00 0.000000000000000000e+00 1.538531599999999955e+01 0.000000000000000000e+00 0.000000000000000000e+00 0.000000000000000000e+00 1.481169099999999972e+01
1.325025199999999970e+01 0.000000000000000000e+00 0.000000000000000000e+00 0.000000000000000000e+00 1.522567599999999999e+01 0.000000000000000000e+00 0.000000000000000000e+00 0.000000000000000000e+00 1.467463829999999980e+01