-1.563068476169999940e+03
-1.563635912779999899e+03
-1.562027005789999976e+03
-1.563052826220000043e+03
-1.562368794409999964e+03
-1.562819527200000039e+03
-1.562080905309999935e+03
-1.563067351429999917e+03
-1.563038077850000036e+03
-1.562547396789999993e+03
-1.562971255330000076e+03
-1.563104202219999934e+03
-1.563158219229999986e+03
-1.563700149810000084e+03
-1.564029489040000044e+03
-1.563206574549999914e+03
-1.563325619440000082e+03
-1.562990603360000023e+03
-1.563316739260000077e+03
-1.563313655339999968e+03
-1.562655301849999887e+03
-1.562780369329999985e+03
-1.563146158799999967e+03
-1.562902306980000048e+03
-1.562441529929999888e+03
-1.563057699230000026e+03
-1.563337804009999900e+03
-1.562832105490000004e+03
-1.563292012079999949e+03
-1.563686319180000055e+03
-1.563295915259999902e+03
-1.563205747559999963e+03
-1.563130829409999933e+03
-1.563200654080000049e+03
-1.563082902009999998e+03
-1.563253600629999937e+03
-1.562810470699999996e+03
-1.563095049280000012e+03
-1.563512744999999995e+03
-1.562981342490000088e+03
-1.563062573279999924e+03
-1.563355448860000024e+03
-1.563824044799999911e+03
-1.563088467240000000e+03
-1.563177017570000089e+03
-1.562949594160000061e+03
-1.563246068590000050e+03
-1.562692067080000015e+03
-1.563220341850000068e+03
-1.563167405749999944e+03
-1.563342738280000049e+03
-1.563331939700000021e+03
-1.563248009129999900e+03
-1.562962562290000051e+03
-1.563072914070000024e+03
-1.563292565819999936e+03
-1.562988730580000038e+03
-1.562838202240000101e+03
-1.563495688629999904e+03
-1.563458651500000087e+03
-1.562674627659999942e+03
-1.563504672389999996e+03
-1.563079183640000110e+03
-1.562606579719999900e+03
-1.563022152830000095e+03
-1.563369337659999928e+03
-1.562960845930000005e+03
-1.563223431930000061e+03
-1.562568307289999893e+03
-1.562717451149999988e+03
-1.563875585850000107e+03
-1.562884609559999944e+03
-1.563477701750000051e+03
-1.563440386349999926e+03
-1.563524813420000100e+03
-1.563238257250000061e+03
-1.562730811700000004e+03
-1.563009306389999892e+03
-1.562880041979999987e+03
-1.562658736540000064e+03
-1.563044861529999935e+03
-1.562775377449999951e+03
-1.562398504940000066e+03
-1.563463609850000012e+03
-1.562690648250000095e+03
-1.563049822039999981e+03
-1.563055236980000018e+03
-1.562750535050000053e+03
-1.563980381399999942e+03
-1.563244153589999996e+03
-1.563083456520000027e+03
-1.562806693479999922e+03
-1.563420102399999905e+03
-1.563431497170000057e+03
-1.563283058479999909e+03
-1.562724020130000099e+03
-1.563067927540000028e+03
-1.563929777739999963e+03
-1.563456008659999952e+03
-1.562773890189999975e+03
-1.563358703890000015e+03
-1.562926187479999953e+03
-1.562941410129999895e+03
-1.562487137260000054e+03
-1.563275438220000069e+03
-1.562881693369999994e+03
-1.563180978150000101e+03
-1.562639698570000064e+03
-1.563243135469999970e+03
-1.563635730319999993e+03
-1.563193052350000016e+03
-1.563113767119999920e+03
-1.563483983000000080e+03
-1.563263512949999949e+03
-1.563337833799999999e+03
-1.562397109680000085e+03
-1.563528126160000056e+03
-1.563476874420000058e+03
-1.563370434129999921e+03
-1.562710548230000086e+03
-1.563180138980000038e+03
-1.562877825049999956e+03
-1.562806604590000006e+03
-1.563945018509999954e+03
-1.562692077250000011e+03
-1.563171320209999976e+03
-1.563347184270000071e+03
-1.562288709950000111e+03
-1.563525916470000084e+03
-1.563219473110000081e+03
-1.563956297510000013e+03
-1.563364617089999911e+03
-1.563578831829999899e+03
-1.563341980299999932e+03
-1.562939673889999995e+03
-1.563529863010000099e+03
-1.562969583240000020e+03
-1.562792720910000071e+03
-1.563386588880000090e+03
-1.563279138489999923e+03
-1.563253208979999954e+03
-1.563653572140000051e+03
-1.562951811570000018e+03
-1.563008644709999999e+03
-1.563416598889999932e+03
-1.563350596490000044e+03
-1.562896004839999932e+03
-1.562882980639999914e+03
-1.563533839290000060e+03
-1.562862998710000056e+03
-1.563426317559999916e+03
-1.562454703650000056e+03
-1.562601204060000100e+03
-1.562314434950000077e+03
-1.563347663779999948e+03
-1.563210965080000051e+03
-1.563614168340000106e+03
-1.563962389799999983e+03
-1.563338645029999952e+03
-1.563189819910000097e+03
-1.562869446669999888e+03
-1.562306465690000095e+03
-1.563068270080000048e+03
-1.562614700289999973e+03
-1.563572395420000021e+03
-1.563075899989999925e+03
-1.562761641929999996e+03
-1.563107177670000056e+03
-1.563019285849999960e+03
-1.563041437090000045e+03
-1.563081942510000090e+03
-1.562367061800000101e+03
-1.563519630989999996e+03
-1.563409667200000058e+03
-1.563489519590000100e+03
-1.562989773889999924e+03
-1.563904498399999966e+03
-1.563041098209999973e+03
-1.563204679630000101e+03
-1.562400910889999977e+03
-1.563860280959999955e+03
-1.563166378399999985e+03
-1.563615046090000078e+03
-1.561709440200000017e+03
-1.563394577069999968e+03
-1.563849726659999988e+03
-1.563543521629999987e+03
-1.562883841889999985e+03
-1.563528507810000065e+03
-1.563011310580000099e+03
-1.563362665619999916e+03
-1.563732564019999927e+03
-1.562483518409999988e+03
-1.563060867180000059e+03
-1.563912213759999986e+03
-1.563487477370000079e+03
-1.562983618949999936e+03
-1.563478144299999940e+03
-1.563608607419999998e+03
-1.563520750760000055e+03
-1.563490190680000069e+03
-1.562599581579999949e+03
-1.562927687440000000e+03
-1.563170657039999924e+03
-1.563420702500000061e+03
-1.561996054940000022e+03
-1.563294173669999964e+03
-1.563601932320000060e+03
-1.562708849489999920e+03
-1.563241302200000064e+03
-1.562714389499999925e+03
-1.562787735560000101e+03
-1.563134512289999975e+03
-1.563549715379999952e+03
-1.563001249680000001e+03
-1.562751721889999999e+03
-1.563138223749999952e+03
-1.563296293249999962e+03
-1.562921241869999903e+03
-1.563324464869999929e+03
-1.562758679649999976e+03
-1.563252262799999926e+03
-1.563631808390000060e+03
-1.563111516669999901e+03
-1.562984557439999890e+03
-1.563190811930000109e+03
-1.563261424840000018e+03
-1.563321029899999985e+03
-1.563078179359999922e+03
-1.563400079719999894e+03
-1.562498302530000046e+03
-1.563130664470000056e+03
-1.562371619499999952e+03
-1.562976564119999921e+03
-1.563598462469999959e+03
-1.562825289760000032e+03
-1.563101604640000005e+03
-1.563158853579999914e+03
-1.563216530429999921e+03
-1.563086820870000111e+03
-1.563216891170000054e+03
-1.563693427180000072e+03
-1.562961638190000031e+03
-1.562849799620000113e+03
-1.562972350569999890e+03
-1.563018214960000023e+03
-1.563321031369999901e+03
-1.562910443859999987e+03
-1.563499024319999990e+03
-1.562564948640000011e+03
-1.562779121929999974e+03
-1.563107967180000060e+03
-1.562489462020000019e+03
-1.562696579509999992e+03
-1.563439714500000036e+03
-1.563418288419999953e+03
-1.562607596959999910e+03
-1.562950783219999948e+03
-1.563413921829999936e+03
-1.562715601070000048e+03
-1.562485036239999999e+03
-1.563616220879999901e+03
-1.563326115229999914e+03
-1.563192008329999908e+03
-1.562862861450000082e+03
-1.562444696100000101e+03
-1.563977883060000067e+03
-1.562895926980000013e+03
-1.563232292079999979e+03
-1.562502925230000073e+03
-1.563536227379999900e+03
-1.562549429489999966e+03
-1.562725008720000005e+03
-1.562351022390000026e+03
-1.563205062750000025e+03
-1.562757404080000015e+03
-1.562405678280000075e+03
-1.564067636600000014e+03
-1.563154912839999952e+03
-1.562985388640000110e+03
-1.562802123359999996e+03
-1.563008845759999986e+03
-1.562745453080000061e+03
-1.562806819690000111e+03
-1.563387829219999958e+03
-1.563251649000000043e+03
-1.563215271799999982e+03
-1.563472214979999990e+03
-1.563360269499999958e+03
-1.563143128879999949e+03
-1.563015905360000033e+03
-1.563569662220000055e+03
-1.562974485969999932e+03
-1.563326743520000036e+03
-1.563309442799999943e+03
-1.563574460419999923e+03
-1.563045148579999932e+03
-1.563765826119999929e+03
-1.563206068389999928e+03
-1.562925575759999901e+03
-1.562002282019999939e+03
-1.563535985929999924e+03
-1.563774747680000019e+03
-1.563673353489999954e+03
-1.562606845730000032e+03
-1.563586425409999947e+03
-1.563674376610000081e+03
-1.563167821609999919e+03
-1.562651137130000052e+03
-1.563687665140000036e+03
-1.563199946299999965e+03
-1.563029692939999904e+03
-1.563256793949999974e+03
-1.563122747240000081e+03
-1.563440705940000043e+03
-1.562920042550000062e+03
-1.563144371159999992e+03
-1.562473024180000039e+03
-1.563479667719999952e+03
-1.563188436540000112e+03
-1.563605386839999937e+03
-1.563243540559999929e+03
-1.563028054740000016e+03
-1.562633836279999969e+03
-1.562997362809999913e+03
-1.563487789719999910e+03
-1.563361088619999919e+03
-1.564321381720000090e+03
-1.562827397389999987e+03
-1.563424591140000075e+03
-1.563315833789999942e+03
-1.562789158979999911e+03
-1.563181569500000023e+03
-1.562529112610000084e+03
-1.563723005179999973e+03
-1.562219594140000027e+03
-1.563861345530000108e+03
-1.563416783189999933e+03
-1.562279929329999959e+03
-1.563323489540000082e+03
-1.563799331180000081e+03
-1.563483534219999910e+03
-1.562824750190000032e+03
-1.562716508879999992e+03
-1.563473340889999918e+03
-1.563737776519999898e+03
-1.564022660390000055e+03
-1.562941077669999913e+03
-1.563277502129999903e+03
-1.562564048469999989e+03
-1.563594876959999965e+03
-1.562694549300000062e+03
-1.563089182780000101e+03
-1.563212931889999936e+03
-1.563582917210000005e+03
-1.562859038090000013e+03
-1.562151990269999942e+03
-1.563818225029999894e+03
-1.563587493770000037e+03
-1.563168695809999917e+03
-1.562491416889999982e+03
-1.563065765699999929e+03
-1.563166450310000073e+03
-1.563353076710000096e+03
-1.562853760519999923e+03
-1.563841932560000032e+03
-1.563168141169999899e+03
-1.563105567629999996e+03
-1.563893337219999921e+03
-1.563003255379999928e+03
-1.562812908269999980e+03
-1.563614629440000044e+03
-1.564007564239999965e+03
-1.564206499630000053e+03
-1.563049011580000069e+03
-1.563743375120000110e+03
-1.563507337680000091e+03
-1.562847587750000002e+03
-1.563139545810000072e+03
-1.563114660779999895e+03
-1.562944119759999921e+03
-1.562890019489999986e+03
-1.563276665959999946e+03
-1.563494871869999997e+03
-1.563514240779999909e+03
-1.563722321120000061e+03
-1.562535077629999932e+03
-1.562691209869999966e+03
-1.563208922269999903e+03
-1.563529707579999922e+03
-1.563217389249999997e+03
-1.563486457230000042e+03
-1.562593827180000062e+03
-1.562962752919999957e+03
-1.562427633909999940e+03
-1.563109667819999913e+03
-1.563174520269999903e+03
-1.563168743420000055e+03
-1.562738929139999982e+03
-1.562843066220000082e+03
-1.562957480380000106e+03
-1.563874848019999945e+03
-1.563668782219999912e+03
-1.563191132879999941e+03
-1.563834009440000045e+03
-1.563049451849999969e+03
-1.561876852849999977e+03
-1.562123086240000021e+03
-1.563145687200000111e+03
-1.563124683020000020e+03
-1.563643268609999950e+03
-1.563705600920000052e+03
-1.563084979270000076e+03
-1.562780703989999893e+03
-1.562662888450000082e+03
-1.563151078070000040e+03
-1.562933081260000108e+03
-1.562366731780000009e+03
-1.563324832550000110e+03
-1.563102324100000033e+03
-1.563035493200000019e+03
-1.562256697660000100e+03
-1.562611817839999958e+03
-1.563843110080000088e+03
-1.563402533230000017e+03
-1.562576791250000042e+03
-1.563249277200000051e+03
-1.563065270329999976e+03
-1.562639085139999906e+03
-1.563465600810000069e+03
-1.563498991720000049e+03
-1.562554708110000092e+03
-1.563928681540000071e+03
-1.563603448000000071e+03
-1.562911674290000065e+03
-1.562535982910000030e+03
-1.562595326549999982e+03
-1.563358151220000082e+03
-1.563734006279999903e+03
-1.563457657850000032e+03
-1.563471138529999962e+03
-1.563127197699999897e+03
-1.563536003140000048e+03
-1.563135842509999975e+03
-1.563397425930000054e+03
-1.562752015060000076e+03
-1.563079484390000061e+03
-1.563534369040000001e+03
-1.563424068540000007e+03
-1.561998620110000047e+03
-1.563193079399999988e+03
-1.563308384550000028e+03
-1.563637279269999908e+03
-1.564224706080000033e+03
-1.562705772280000019e+03
-1.562805066429999897e+03
-1.563359396650000008e+03
-1.563246097499999905e+03
-1.562938228649999928e+03
-1.562824818770000093e+03
-1.562227981329999920e+03
-1.563134374660000049e+03
-1.562750001090000069e+03
-1.563442520659999900e+03
-1.563138087900000073e+03
-1.562970910889999914e+03
-1.564188579469999922e+03
-1.562981553959999928e+03
-1.563076717310000049e+03
-1.563089052750000064e+03
-1.563524382800000012e+03
-1.563541198039999927e+03
-1.562582711739999922e+03
-1.563538330070000029e+03
-1.563170286799999985e+03
-1.562864930729999969e+03
-1.563709618119999959e+03
-1.562313028210000084e+03
-1.563168979170000057e+03
-1.563253209720000086e+03
-1.563277713270000049e+03
-1.563146088989999953e+03
-1.562701014929999928e+03
-1.562920419040000070e+03
-1.562828623659999948e+03
-1.562886307770000030e+03
-1.564058377009999958e+03
-1.562915260420000095e+03
-1.563161869329999945e+03
-1.563436968239999942e+03
-1.563645182490000025e+03
-1.562992087849999962e+03
-1.562932415969999965e+03
-1.563004763050000065e+03
-1.563413256260000026e+03
-1.563606219700000111e+03
-1.562584843289999981e+03
-1.562781290930000068e+03
-1.563073581930000046e+03
-1.563275739899999962e+03
-1.562796326059999956e+03
-1.563086802100000114e+03
-1.563734841290000077e+03
-1.563153546519999963e+03
-1.563637663440000097e+03
-1.562656558260000111e+03
-1.564014184930000056e+03
-1.563272983560000057e+03
-1.562978657919999932e+03
-1.562618783460000031e+03
-1.562910551819999910e+03
-1.563647044589999950e+03
-1.562949913120000019e+03
-1.563464487120000058e+03
-1.562266737599999942e+03
-1.563605686990000095e+03
-1.562879905640000061e+03
-1.563305952209999987e+03
-1.562935850909999999e+03
-1.563332875789999889e+03
-1.563178090209999937e+03
-1.563668312280000009e+03
-1.562534354330000042e+03
-1.563556736230000070e+03
-1.564100501010000016e+03
-1.562994997439999906e+03
-1.563007202700000107e+03
-1.562848256530000072e+03
-1.562238802910000004e+03
-1.564488139719999936e+03
-1.563392877300000009e+03
-1.563349771650000093e+03
-1.563351557680000042e+03
-1.563523632899999939e+03
-1.563088286950000111e+03
-1.563141124179999906e+03
-1.562920372069999985e+03
-1.563202160719999938e+03
-1.563573916620000091e+03
-1.563266621100000066e+03
-1.561740755459999946e+03
-1.562770925139999918e+03
-1.563927072819999921e+03
-1.563609721999999920e+03
-1.563523988460000055e+03
-1.562928092560000096e+03
-1.564033300829999916e+03
-1.563032525580000083e+03
-1.563746575529999973e+03
-1.563168752759999961e+03
-1.563285113030000048e+03
-1.563267192519999981e+03
-1.562780142580000074e+03
-1.562916580329999988e+03
-1.563228998529999899e+03
-1.563263305949999904e+03
-1.563086102770000025e+03
-1.563592967470000076e+03
-1.563459296980000090e+03
-1.563496432270000014e+03
-1.563177244169999994e+03
-1.562979233250000107e+03
-1.562738054449999936e+03
-1.563542857619999950e+03
-1.563179049150000083e+03
-1.562926555139999891e+03
-1.563208826230000113e+03
-1.562642745390000073e+03
-1.563555679470000086e+03
-1.563191773009999906e+03
-1.563407783800000061e+03
-1.563270806219999940e+03
-1.563043009490000031e+03
-1.562095574059999990e+03
-1.562889900879999914e+03
-1.563711957429999984e+03
-1.562769195419999960e+03
-1.563452671810000083e+03
-1.562658405290000019e+03
-1.563189785250000114e+03
-1.563092781699999932e+03
-1.563130617080000093e+03
-1.563530207609999934e+03
-1.563769715879999922e+03
-1.563102928869999914e+03
-1.563050541560000056e+03
-1.562520320000000083e+03
-1.563320807289999948e+03
-1.562952479810000114e+03
-1.562932153080000035e+03
-1.563129428740000094e+03
-1.562450547630000074e+03
-1.562571399149999934e+03
-1.562431616560000066e+03
-1.563971467050000001e+03
-1.563201638770000045e+03
-1.563368372529999988e+03
-1.562996508879999965e+03
-1.562863307780000014e+03
-1.562903761170000053e+03
-1.562185624519999919e+03
-1.562878345860000081e+03
-1.563562321449999899e+03
-1.563124586160000035e+03
-1.563009740169999986e+03
-1.562241968329999963e+03
-1.562911162529999956e+03
-1.562242400970000062e+03
-1.562972539430000097e+03
-1.563260148719999961e+03
-1.562867048820000036e+03
-1.562532338889999892e+03
-1.563642478380000057e+03
-1.563444990960000041e+03
-1.563739185820000102e+03
-1.563617539739999984e+03
-1.563577009639999915e+03
-1.563214666880000095e+03
-1.563148633230000087e+03
-1.563612026739999919e+03
-1.562857009939999898e+03
-1.563393334319999894e+03
-1.563405977990000110e+03
-1.563397807190000094e+03
-1.562877530850000085e+03
-1.562897368149999920e+03
-1.562863424010000017e+03
-1.563290156640000077e+03
-1.563256232360000013e+03
-1.563152817780000078e+03
-1.562242597899999964e+03
-1.563648630610000055e+03
-1.563294376430000057e+03
-1.563486126289999902e+03
-1.563791915889999927e+03
-1.563460844319999978e+03
-1.562960016259999975e+03
-1.562579230390000021e+03
-1.563125314959999969e+03
-1.562978135520000023e+03
-1.562174258360000067e+03
-1.562809364850000065e+03
-1.562487611849999894e+03
-1.563635458810000046e+03
-1.562327863510000043e+03
-1.562927409559999887e+03
-1.562828483139999889e+03
-1.562769915829999945e+03
-1.562817009399999961e+03
-1.562586327440000105e+03
-1.562824753009999995e+03
-1.562886035960000072e+03
-1.562908073269999932e+03
-1.562975354839999909e+03
-1.562554322290000073e+03
-1.564004587939999965e+03
-1.562241044030000012e+03
-1.563450381820000075e+03
-1.563559415510000008e+03
-1.563074811019999970e+03
-1.563992961520000108e+03
-1.563388020549999965e+03
-1.562388203940000039e+03
-1.562653813339999942e+03
-1.562638184200000069e+03
-1.562008517739999888e+03
-1.563100115239999923e+03
-1.563210755060000110e+03
-1.563626488970000082e+03
-1.562927915360000043e+03
-1.561845497210000076e+03
-1.563510189630000013e+03
-1.562786243109999987e+03
-1.563208020640000086e+03
-1.563558634219999931e+03
-1.563489774449999913e+03
-1.562880033650000087e+03
-1.562461722589999908e+03
-1.563863554909999948e+03
-1.562789852780000047e+03
-1.563256817769999998e+03
-1.562970022490000019e+03
-1.563028941170000053e+03
-1.563329701540000087e+03
-1.563715113590000101e+03
-1.562518368100000089e+03
-1.562478166970000075e+03
-1.562886944710000080e+03
-1.563595629299999928e+03
-1.563970111619999898e+03
-1.562665257269999984e+03
-1.563802594140000110e+03
-1.563150505970000040e+03
-1.563247227889999976e+03
-1.562740142110000079e+03
-1.563214284740000039e+03
-1.562259996210000054e+03
-1.562344225959999903e+03
-1.563358869050000067e+03
-1.563478821509999989e+03
-1.563449127979999957e+03
-1.562807582980000007e+03
-1.563689766550000058e+03
-1.562956415670000069e+03
-1.562585856910000075e+03
-1.562872816329999978e+03
-1.563231269720000000e+03
-1.563080224959999896e+03
-1.563981232670000054e+03
-1.562288099999999986e+03
-1.563744668889999957e+03
-1.563148415189999923e+03
-1.562908509059999915e+03
-1.562512977339999907e+03
-1.563174082210000051e+03
-1.562719832920000044e+03
-1.562563082560000112e+03
-1.562795825930000092e+03
-1.562397568280000087e+03
-1.563361606539999912e+03
-1.562551506320000044e+03
-1.563762869579999915e+03
-1.563101159029999963e+03
-1.563248440549999941e+03
-1.562678907479999907e+03
-1.562989677540000002e+03
-1.563464008659999990e+03
-1.562773927550000053e+03
-1.563638475749999998e+03
-1.562698156520000111e+03
-1.563388192189999927e+03
-1.563178547310000113e+03
-1.562539093580000099e+03
-1.563529624900000044e+03
-1.563059571420000111e+03
-1.563284096410000075e+03
-1.562860684320000018e+03
-1.563548799930000087e+03
-1.563013292520000050e+03
-1.562895954179999990e+03
-1.562822466029999987e+03
-1.563201665950000006e+03
-1.562697410080000054e+03
-1.563176595299999917e+03
-1.563284586389999959e+03
-1.563084246489999941e+03
-1.562740312489999951e+03
-1.563345968280000079e+03
-1.563473084949999929e+03
-1.562235858860000008e+03
-1.563556777550000106e+03
-1.563257474289999891e+03
-1.563154766710000104e+03
-1.562247693600000048e+03
-1.562697989880000023e+03
-1.563352987040000016e+03
-1.562792235359999950e+03
-1.563085808860000043e+03
-1.562623508529999981e+03
-1.563493468189999930e+03
-1.562246932940000079e+03
-1.563089869980000003e+03
-1.563230661029999965e+03
-1.563039729430000079e+03
-1.563220953920000056e+03
-1.563470344639999894e+03
-1.563043498830000090e+03
-1.562767006609999953e+03
-1.563486636070000031e+03
-1.562790398359999926e+03
-1.562813223330000028e+03
-1.563039114969999900e+03
-1.563414827410000044e+03
-1.562873205560000088e+03
-1.562893809370000099e+03
-1.563259140019999904e+03
-1.563485864550000088e+03
-1.563167168729999958e+03
-1.563494596550000097e+03
-1.563162886860000071e+03
-1.563158173979999901e+03
-1.562909875990000046e+03
-1.562659479120000015e+03
-1.562394018669999923e+03
-1.562823106459999963e+03
-1.562783992099999978e+03
-1.563578376460000072e+03
-1.563233914910000067e+03
-1.562491680529999940e+03
-1.562800532409999960e+03
-1.563351417280000078e+03
-1.562412062059999926e+03
-1.563113078719999976e+03
-1.563370954830000073e+03
-1.563601035189999948e+03
-1.563327533019999919e+03
-1.563369641340000044e+03
-1.563279261319999932e+03
-1.563555094589999953e+03
-1.563248746590000110e+03
-1.564014406589999908e+03
-1.563159097199999906e+03
-1.563849559470000031e+03
-1.562963301770000044e+03
-1.563390418839999938e+03
-1.562437801329999957e+03
-1.563229354650000005e+03
-1.563556256150000081e+03
-1.563568991639999922e+03
-1.562863429190000033e+03
-1.563212534589999905e+03
-1.563112236879999955e+03
-1.563232809489999909e+03
-1.563034532690000106e+03
-1.563311591279999902e+03
-1.563354015520000075e+03
-1.562810883099999955e+03
-1.562459500619999972e+03
-1.563705553259999988e+03
-1.563137069240000073e+03
-1.563142116750000014e+03
-1.563258672120000028e+03
-1.563286294949999956e+03
-1.562271908740000072e+03
-1.563558661049999955e+03
-1.563466150299999981e+03
-1.562775537649999933e+03
-1.563149404759999925e+03
-1.563397217689999934e+03
-1.562205015940000067e+03
-1.562737064890000056e+03
-1.563000682809999944e+03
-1.563477522980000003e+03
-1.563283428340000000e+03
-1.563676459100000102e+03
-1.563268507080000063e+03
-1.563746433600000046e+03
-1.562320309180000095e+03
-1.563663229109999975e+03
-1.562906604309999921e+03
-1.563475389200000109e+03
-1.562864519470000005e+03
-1.562856731320000108e+03
-1.562542128260000027e+03
-1.563403511429999980e+03
-1.564040235870000060e+03
-1.563939774200000102e+03
-1.563337528759999941e+03
-1.562558775319999995e+03
-1.562934681160000082e+03
-1.563120627219999960e+03
-1.563302584399999887e+03
-1.562568935700000111e+03
-1.563256122080000068e+03
-1.562844129289999955e+03
-1.562415823710000041e+03
-1.562973391360000051e+03
-1.562954667960000052e+03
-1.563219043679999913e+03
-1.563102687719999949e+03
-1.563465546359999962e+03
-1.562717654920000086e+03
-1.562531663680000065e+03
-1.563346165129999918e+03
-1.563039285379999910e+03
-1.563058143190000010e+03
-1.563174830350000093e+03
-1.562605935049999971e+03
-1.562448414799999910e+03
-1.563402748409999958e+03
-1.562687710809999999e+03
-1.562683036840000113e+03
-1.563687467089999927e+03
-1.563095005509999964e+03
-1.563426737510000066e+03
-1.562944675250000046e+03
-1.563462690690000045e+03
-1.562894293229999903e+03
-1.563585661759999994e+03
-1.563258421289999887e+03
-1.563255486430000019e+03
-1.563109469409999974e+03
-1.563284344809999993e+03
-1.563111495829999967e+03
-1.562984639130000005e+03
-1.563630109940000011e+03
-1.563650216029999910e+03
-1.562955700409999963e+03
-1.563178988840000102e+03
-1.562708166460000029e+03
-1.562941397790000110e+03
-1.562612266039999895e+03
-1.562383422330000030e+03
-1.563221654189999981e+03
-1.562594993850000037e+03
-1.563069258929999933e+03
-1.563340268550000019e+03
-1.563250054820000059e+03
-1.563450076470000113e+03
-1.563202304109999886e+03
-1.563332667740000034e+03
-1.562896062600000050e+03
-1.562381839619999937e+03
-1.562292621979999922e+03
-1.563576794679999921e+03
-1.563246559700000034e+03
-1.562793758250000110e+03
-1.563576472879999983e+03
-1.563697121180000067e+03
-1.563099871149999899e+03
-1.562612610760000052e+03
-1.563295603710000023e+03
-1.563148811620000060e+03
-1.562816399510000110e+03
-1.563354418269999996e+03
-1.562670209030000024e+03
-1.562411722410000039e+03
-1.562192898900000046e+03
-1.562849015049999934e+03
-1.562733931530000064e+03
-1.563187646999999970e+03
-1.563252738579999914e+03
-1.563175584780000008e+03
-1.563455158530000062e+03
-1.562387414119999903e+03
-1.563794299229999979e+03
-1.562942225609999923e+03
-1.562499329120000084e+03
-1.563185165289999986e+03
-1.563435365379999894e+03
-1.562922388819999924e+03
-1.562943142000000080e+03
-1.562757107090000090e+03
-1.562973138179999978e+03
-1.562854521620000014e+03
-1.562958493670000053e+03
-1.562916712539999935e+03
-1.563551453670000001e+03
-1.563100281349999932e+03
-1.563041382529999964e+03
-1.564037056859999893e+03
-1.562348270330000105e+03
-1.563112997250000035e+03
-1.563490744270000050e+03
-1.563119478549999940e+03
-1.563419005680000055e+03
-1.563094699940000055e+03
-1.562665033839999978e+03
-1.563335269050000079e+03
-1.562513317830000005e+03
-1.563197734430000082e+03
-1.563131564080000089e+03
-1.562742331550000017e+03
-1.563399443009999914e+03
-1.562503895260000036e+03
-1.563203711959999964e+03
-1.562721562980000044e+03
-1.562283420029999888e+03
-1.563065224689999923e+03
-1.563711167440000054e+03
-1.563486979600000041e+03
-1.562561412029999929e+03
-1.562086057010000104e+03
-1.563308384019999949e+03
-1.563213846310000008e+03
-1.562960983519999900e+03
-1.563222173579999890e+03
-1.563232071820000101e+03
-1.562957312400000092e+03
-1.562420754089999946e+03
-1.563852863630000002e+03
-1.563434074009999904e+03
-1.563521544039999981e+03
-1.563020621359999950e+03
-1.562677819499999941e+03
-1.563063916629999994e+03
-1.563505809270000100e+03
-1.563804091239999934e+03
-1.563693244840000034e+03
-1.562841790259999925e+03
-1.563659413800000038e+03
-1.563267900049999980e+03
-1.563020881420000023e+03
-1.564408211429999938e+03
-1.562161834580000004e+03
-1.563122791340000049e+03
-1.562048375529999930e+03
-1.562829739490000065e+03
-1.563747412930000110e+03
-1.563272269309999956e+03
-1.563348013320000064e+03
-1.562341531730000042e+03
-1.563395579620000035e+03
-1.563244671610000069e+03
-1.564304179570000088e+03
-1.562620863679999957e+03
-1.562903798640000105e+03
-1.563628814109999894e+03
-1.563481708110000000e+03
-1.562994701070000019e+03
