-2.499006281609744917e+00 -7.332174305148322802e+00 3.494962820905405998e+00 -7.332174305148322802e+00 4.170594558891706605e+00 4.410722722521009054e+00 3.494962820905405998e+00 4.410722722521009054e+00 -1.151521762815710836e+01
1.057054271341823920e-01 2.590483978091325579e+00 -1.992943927427572648e+00 2.590483978091325579e+00 -3.386337002872435775e+00 2.038509792178258451e+00 -1.992943927427572648e+00 2.038509792178258451e+00 -1.376482051875245993e+01
-6.989041926930362969e+00 7.889343695159071190e-01 -9.342529368240684029e-01 7.889343695159071190e-01 -8.167743277641022814e+00 -4.321255561637259213e+00 -9.342529368240684029e-01 -4.321255561637259213e+00 -5.763414197787899873e+00
-3.643156318343403921e+00 -3.242969414694720331e+00 4.727630152850634815e+00 -3.242969414694720331e+00 -4.874237871263775723e+00 -2.971957704754866647e+00 4.727630152850634815e+00 -2.971957704754866647e+00 -2.118254109954195386e+01
-1.292963479705576457e+00 -2.040509272076401981e+00 1.479701590504429953e+00 -2.040509272076401981e+00 6.635349659973325487e+00 2.979187667576467913e+00 1.479701590504429953e+00 2.979187667576467913e+00 -1.248186013339957157e+01
-5.738122470059900948e+00 5.636623204794057429e+00 2.334280654710415348e+00 5.636623204794057429e+00 -4.141225235502027147e+00 5.527872677422186243e+00 2.334280654710415348e+00 5.527872677422186243e+00 -1.393041067442073278e+01
-4.181648528883454397e+00 -5.527871844488902120e+00 -2.589976495308068838e+00 -5.527871844488902120e+00 -6.499428926012925656e-01 2.870491951055013757e+00 -2.589976495308068838e+00 2.870491951055013757e+00 -9.730862938131954465e+00
-6.048507641749771402e+00 2.377514090782459899e+00 -7.086699587921855503e+00 2.377514090782459899e+00 -8.010351097047266222e+00 -8.072743350323641209e-01 -7.086699587921855503e+00 -8.072743350323641209e-01 -1.041564346872697833e+01
-7.772558359695184826e+00 2.803573852397800437e-01 -3.725239736758629849e+00 2.803573852397800437e-01 4.255741109884757734e+00 -3.360995307060513859e+00 -3.725239736758629849e+00 -3.360995307060513859e+00 -7.039666078026988849e+00
-5.884019651663258799e+00 3.347219823447335152e+00 -1.303939223310283557e+00 3.347219823447335152e+00 -6.233206723456471643e+00 -6.862245934080518639e-01 -1.303939223310283557e+00 -6.862245934080518639e-01 -1.495632126124598393e+01
-9.078425107737789546e+00 1.904296628845774997e+00 -1.220188856609929484e+00 1.904296628845774997e+00 -1.622196710304702094e+01 -3.816620815958720048e-01 -1.220188856609929484e+00 -3.816620815958720048e-01 -1.868875027991884608e+01
-5.935551266103335166e+00 -9.177261565904212826e-02 1.984278792469307051e+00 -9.177261565904212826e-02 -2.115263175126507633e+01 8.928474786654533313e-02 1.984278792469307051e+00 8.928474786654533313e-02 -1.111384384823229254e+01
5.370781367893715519e+00 -3.342620420063659559e+00 1.766214626695551848e+00 -3.342620420063659559e+00 9.321214061685674235e-01 7.811110968424236356e-01 1.766214626695551848e+00 7.811110968424236356e-01 -1.710330118260990417e+01
-9.288145414222904961e+00 -1.041541008515165778e+01 -2.208643196526631491e-02 -1.041541008515165778e+01 -3.307601479101922592e+00 9.279839723956033737e-01 -2.208643196526631491e-02 9.279839723956033737e-01 -1.079365419952477900e+01
-5.890864152943263932e+00 1.818347337494565341e+00 3.081811857339174510e-01 1.818347337494565341e+00 1.803835476793621995e+00 -7.390230346675831508e-02 3.081811857339174510e-01 -7.390230346675831508e-02 -7.828365431514470174e+00
-8.157348997595081030e+00 3.985313433347712042e+00 -2.604977490280365515e+00 3.985313433347712042e+00 -1.236535821047410977e+01 3.618204386703921749e+00 -2.604977490280365515e+00 3.618204386703921749e+00 -5.052611946844294266e-01
-8.298062672704549669e+00 4.504494979668423937e+00 -1.193941320539853468e+00 4.504494979668423937e+00 -1.047020503401714464e+01 -3.590587035525804716e+00 -1.193941320539853468e+00 -3.590587035525804716e+00 -6.099484427348434323e+00
3.415978095896321065e+00 -2.473134323660292289e+00 4.099582742082946041e+00 -2.473134323660292289e+00 1.714078802722935058e-01 1.017874663898844956e+00 4.099582742082946041e+00 1.017874663898844956e+00 -5.217431641039936174e+00
-5.159443215408832550e+00 -9.016338172787313754e-01 5.940553051453473010e+00 -9.016338172787313754e-01 -1.380504349914148055e+00 4.182076458001755814e-02 5.940553051453473010e+00 4.182076458001755814e-02 -1.107703584709288513e+01
-7.513232828002681885e+00 9.536762261153974851e-01 2.388743995038948409e+00 9.536762261153974851e-01 -4.325518608734216564e+00 8.817246620829147785e-01 2.388743995038948409e+00 8.817246620829147785e-01 -1.131383500469464565e+01
-6.834034681488367902e+00 -3.747536549558299956e+00 2.514934602455353829e+00 -3.747536549558299956e+00 6.966337824476140028e+00 1.694589028611237780e-01 2.514934602455353829e+00 1.694589028611237780e-01 -1.103230511057750718e+01
-1.758631911815020032e+01 1.450265185556934289e-01 -3.366952518767675873e+00 1.450265185556934289e-01 4.389978419455389691e+00 -9.418864944117500970e-01 -3.366952518767675873e+00 -9.418864944117500970e-01 3.793100822558892471e-01
-1.037146141791811260e+01 -5.790992931911908670e+00 4.543280902146009659e+00 -5.790992931911908670e+00 -5.815778475092906241e+00 -4.355007172492901368e+00 4.543280902146009659e+00 -4.355007172492901368e+00 -1.353251727509903546e+01
3.494221939706559699e+00 -4.830061317155609046e+00 5.849138248981764932e+00 -4.830061317155609046e+00 5.623414851878257181e+00 -1.642265754986885318e+00 5.849138248981764932e+00 -1.642265754986885318e+00 -3.157362614844673399e+00
-1.150818988161710443e+01 1.196791705384705473e+00 -3.737840823805709700e+00 1.196791705384705473e+00 -1.180033038582918614e+01 -3.576797710846040701e+00 -3.737840823805709700e+00 -3.576797710846040701e+00 -1.802076205520168628e+01
-5.914815230584900441e+00 -4.332294429506608147e+00 2.292243374176771376e+00 -4.332294429506608147e+00 -1.281958331484046099e+01 -7.538328950403968554e-01 2.292243374176771376e+00 -7.538328950403968554e-01 2.710684752361293359e+00
-1.572985940114341830e+01 3.036020045269228085e+00 2.691792117973077048e+00 3.036020045269228085e+00 1.303442278073670302e+00 -2.446376931018698020e+00 2.691792117973077048e+00 -2.446376931018698020e+00 -1.256007677168163106e+01
2.860638379906431883e+00 4.042313663153731973e+00 3.668040985084842109e+00 4.042313663153731973e+00 -7.498714325184720586e+00 1.484123409355111889e+00 3.668040985084842109e+00 1.484123409355111889e+00 -4.523589516948091749e+00
5.648413536009658564e+00 3.120786195871996238e+00 4.057744968144573861e+00 3.120786195871996238e+00 1.371501898833391575e+00 2.810894805654329698e+00 4.057744968144573861e+00 2.810894805654329698e+00 -1.722004018638379819e+01
2.557542623366634515e+00 7.610159290399124643e+00 2.407293955374334715e-01 7.610159290399124643e+00 -7.468515417821780744e+00 -9.225383690336675935e-01 2.407293955374334715e-01 -9.225383690336675935e-01 1.275595732423036255e+00
-3.207846813999724933e+00 4.600594183179077534e-01 -2.361781319485531494e+00 4.600594183179077534e-01 -2.159761713541555395e+01 9.316063356906931769e-01 -2.361781319485531494e+00 9.316063356906931769e-01 -2.184002947342586864e+01
-4.497046663915416964e+00 -5.989919851833863662e-01 -4.393714011709908718e+00 -5.989919851833863662e-01 -4.438409925679675183e+00 -7.548974878355407370e+00 -4.393714011709908718e+00 -7.548974878355407370e+00 -1.137035502362457606e+01
-1.126933084858860923e+01 -1.975933665791268279e+00 -8.830920861487646656e-01 -1.975933665791268279e+00 -1.094680540504796618e+01 -1.853050876187428919e+00 -8.830920861487646656e-01 -1.853050876187428919e+00 9.692198553601922839e+00
-1.494859396001545626e+01 5.424701162140106447e+00 1.915396258777178007e+00 5.424701162140106447e+00 -2.291207420349147039e+00 3.279641487241194753e+00 1.915396258777178007e+00 3.279641487241194753e+00 -1.184670630555682003e+01
-5.744718936467775094e+00 -3.677756832300156820e+00 -2.411855309009737880e+00 -3.677756832300156820e+00 -1.099649018377798271e+01 2.663901096546630320e+00 -2.411855309009737880e+00 2.663901096546630320e+00 -2.122972482494297353e+01
-3.972118320689802307e+00 -1.006771727769227159e-01 -3.391824486192966392e-01 -1.006771727769227159e-01 -2.466932669457660321e+00 -2.072726181301573156e+00 -3.391824486192966392e-01 -2.072726181301573156e+00 -2.165089678235818837e+01
-5.029283083941393784e+00 2.230010185004537959e+00 -6.355822566993363232e+00 2.230010185004537959e+00 -1.298541737877333979e+01 1.986743778025986895e+00 -6.355822566993363232e+00 1.986743778025986895e+00 -1.902811851433120083e+01
-4.505485422273269869e+00 -2.237830387256092290e+00 6.574574991855001826e+00 -2.237830387256092290e+00 -2.703428335595907228e+00 2.828339888299630012e+00 6.574574991855001826e+00 2.828339888299630012e+00 -1.026892261815646101e+01
-1.026960116307196991e+01 -1.893254183656813749e+00 8.352340008290227713e-01 -1.893254183656813749e+00 -9.296694912005955658e+00 2.494136192503684235e+00 8.352340008290227713e-01 2.494136192503684235e+00 -1.334808081488106879e+01
1.622544156157332607e+00 -3.022541003832345030e+00 -1.290766957328747688e+00 -3.022541003832345030e+00 7.473487173478746470e+00 -2.158158933994060114e+00 -1.290766957328747688e+00 -2.158158933994060114e+00 -1.064843722485496080e+01
-1.688125840727292992e+00 9.251816030564739002e-01 9.333527486093433634e-01 9.251816030564739002e-01 -9.132130635212218905e+00 1.110327358652851704e+00 9.333527486093433634e-01 1.110327358652851704e+00 -1.298978681604724095e+01
2.278059248966448624e+00 -7.183474851067063405e+00 5.238177493355438585e+00 -7.183474851067063405e+00 9.777649554970203605e-01 -5.105284061323471789e+00 5.238177493355438585e+00 -5.105284061323471789e+00 -8.829006594412813769e+00
4.376950816909297437e-01 2.437835034994008776e+00 8.536712660643706041e-01 2.437835034994008776e+00 1.598325527743652685e+01 -1.857744042904116322e+00 8.536712660643706041e-01 -1.857744042904116322e+00 -7.186657108277068495e+00
1.368178483579616023e+00 2.640218186399237443e-01 4.517452436740075683e+00 2.640218186399237443e-01 -4.266532064230593058e+00 -6.175763367515353375e-01 4.517452436740075683e+00 -6.175763367515353375e-01 -1.730328288462437669e+01
-1.443679797977886814e+01 -3.201032250632864784e+00 -1.275954669163642530e+00 -3.201032250632864784e+00 -5.490899567117591751e+00 3.666876464142080128e+00 -1.275954669163642530e+00 3.666876464142080128e+00 -7.907666449672491105e+00
3.134750042195190378e+00 2.624252871294078804e-01 -7.517470316869713898e+00 2.624252871294078804e-01 -7.009540871923197969e+00 -2.975107684643990780e+00 -7.517470316869713898e+00 -2.975107684643990780e+00 4.259709575885651134e+00
-6.569870605795597562e+00 -4.124803029138339738e+00 -2.917166991568018730e+00 -4.124803029138339738e+00 -1.110978681078052865e+01 -1.390794045006425117e+00 -2.917166991568018730e+00 -1.390794045006425117e+00 -7.542065963457260658e+00
-1.708052155506306136e+01 -4.299291528841311383e-01 -9.743820558831350898e-01 -4.299291528841311383e-01 -9.716640701957109272e+00 -2.417835235125010307e+00 -9.743820558831350898e-01 -2.417835235125010307e+00 -6.776342016827861414e+00
-1.128372484717310620e+01 -3.469880676782903350e+00 -1.237969769183655533e-01 -3.469880676782903350e+00 -3.362286319883407426e+00 3.941641985235534440e-01 -1.237969769183655533e-01 3.941641985235534440e-01 -1.788784183373512304e+00
-8.792153655284483449e+00 1.586336981894094778e-01 5.249090156000929319e+00 1.586336981894094778e-01 -1.433621822721428885e+01 -3.494832260561531623e+00 5.249090156000929319e+00 -3.494832260561531623e+00 1.594689980320696421e+00
-8.527016892126811243e+00 3.087552039986237062e+00 1.745476981016587326e+00 3.087552039986237062e+00 -2.995615649674851610e+00 2.280859274897973243e+00 1.745476981016587326e+00 2.280859274897973243e+00 1.448155509328940660e+00
-8.597924081642961625e+00 -1.327397961253796499e+00 -2.706754563123947577e+00 -1.327397961253796499e+00 -6.402574336099578822e+00 -6.382546103414543204e+00 -2.706754563123947577e+00 -6.382546103414543204e+00 -1.437819790513789897e+01
-3.603654921072338424e-01 5.605955073344313533e+00 -3.266444052230121020e+00 5.605955073344313533e+00 9.289565517779381665e+00 1.341636165526723934e+00 -3.266444052230121020e+00 1.341636165526723934e+00 -1.025636683245249081e+01
-3.110205489666883150e+00 -2.266970692158489786e-01 -1.012120385503983561e-01 -2.266970692158489786e-01 6.285530458180063285e+00 6.091010949940081964e+00 -1.012120385503983561e-01 6.091010949940081964e+00 -4.212072560302865476e+00
-4.042567419888886682e-01 2.013717064377191779e+00 -3.642066518920062390e-01 2.013717064377191779e+00 2.542649407056512434e+00 5.612142542761675568e-01 -3.642066518920062390e-01 5.612142542761675568e-01 -2.449083162717638817e+00
-9.740292814058888027e+00 2.584339641081314087e-01 4.641906219433510894e-01 2.584339641081314087e-01 -4.835318978576573556e+00 2.816585029848639454e-01 4.641906219433510894e-01 2.816585029848639454e-01 -2.150665462910807335e+01
-5.670777092074776871e-01 3.179961353817281733e+00 -3.461380596511964391e+00 3.179961353817281733e+00 -1.226963622251738428e+01 -2.767977640792962379e+00 -3.461380596511964391e+00 -2.767977640792962379e+00 2.942093795134316458e+00
-1.055670067592823003e+01 3.378780093314744715e+00 9.094763988300504920e-01 3.378780093314744715e+00 -1.001556858488424417e+01 1.734693475525224571e+00 9.094763988300504920e-01 1.734693475525224571e+00 -9.584385547079369516e+00
-1.118089318778500152e+00 -1.242083015891918940e+00 1.140210087819740314e+00 -1.242083015891918940e+00 -8.178044646093878711e+00 -4.869118763614053158e+00 1.140210087819740314e+00 -4.869118763614053158e+00 -3.503794083387067104e+00
8.528632228595013354e-01 -7.153100053872984976e-01 -5.109674081641121246e-01 -7.153100053872984976e-01 3.510906769949018624e+00 3.638385198612949512e-01 -5.109674081641121246e-01 3.638385198612949512e-01 -8.364699701711060698e+00
-1.638064657514028966e+01 4.877563130813590497e+00 -4.281769042306034917e-02 4.877563130813590497e+00 -2.427876755264221753e+00 -6.316121956681607585e+00 -4.281769042306034917e-02 -6.316121956681607585e+00 -2.153288043663902940e+01
-1.278246448236542676e+01 -2.398294811745206534e+00 2.459511880104099379e+00 -2.398294811745206534e+00 -9.296034892188886900e+00 -2.724131774930337091e+00 2.459511880104099379e+00 -2.724131774930337091e+00 -2.012817948094796350e+01
-1.669032888848307650e+01 -2.227153733120034396e+00 -2.664821983435604613e-01 -2.227153733120034396e+00 -1.711903896157195248e+01 -5.809462798453435717e+00 -2.664821983435604613e-01 -5.809462798453435717e+00 -5.767067046020573962e+00
-1.059356105575160800e+00 1.747515760050038169e+00 2.352423613068221009e+00 1.747515760050038169e+00 -3.697031536889480829e+00 2.204675674993300749e+00 2.352423613068221009e+00 2.204675674993300749e+00 1.397767805185712975e+00
1.668355393993056168e+01 -2.831392201004951037e+00 9.358750201376778710e-01 -2.831392201004951037e+00 -4.830288133258046734e+00 -2.207924886689702770e-01 9.358750201376778710e-01 -2.207924886689702770e-01 -6.778639649194064809e+00
4.255393537493052492e+00 4.164482957510371008e+00 -6.755875087565976767e-01 4.164482957510371008e+00 -8.493989179048270444e+00 7.168387351744258673e-01 -6.755875087565976767e-01 7.168387351744258673e-01 -3.623719216805633803e+00
-1.290891951302923424e+01 5.283688539096986325e+00 1.123138087690305875e+00 5.283688539096986325e+00 1.164746728997730685e+00 -1.180670568220927086e+00 1.123138087690305875e+00 -1.180670568220927086e+00 -1.247288678454331112e+01
-1.341588169122251628e+01 -5.126151548035617012e+00 -4.267377586358641395e+00 -5.126151548035617012e+00 5.695080423312718354e-01 3.700877476147413914e-01 -4.267377586358641395e+00 3.700877476147413914e-01 -1.455067546123207656e+01
-7.330669408052406411e+00 7.446894597002649441e+00 3.297387482925724811e+00 7.446894597002649441e+00 -9.634506384092507147e+00 3.571822536156025851e+00 3.297387482925724811e+00 3.571822536156025851e+00 6.117820125152952926e-01
-8.439616300031786977e+00 -1.130628582376029367e+00 -9.705693823898970951e-01 -1.130628582376029367e+00 6.881250322640793948e-01 -3.372105020563328281e+00 -9.705693823898970951e-01 -3.372105020563328281e+00 1.403802451670280504e+00
-6.658591128301816653e+00 -7.337683049905447952e+00 2.569767835096485431e+00 -7.337683049905447952e+00 -1.627239862889823740e+01 2.139341058521722516e+00 2.569767835096485431e+00 2.139341058521722516e+00 -1.679834639308463995e+00
-6.842529483668053913e+00 -2.221081379066245809e+00 2.263072138249653698e+00 -2.221081379066245809e+00 -8.765913799061991085e+00 -2.369123821747731728e+00 2.263072138249653698e+00 -2.369123821747731728e+00 -1.973096852755512032e+01
-1.624053828533639177e+01 1.027998584055484388e+00 2.932501813082225017e-01 1.027998584055484388e+00 -4.492025678054705762e-01 -3.391591314481420816e-01 2.932501813082225017e-01 -3.391591314481420816e-01 -1.688054001690906913e+00
-4.844079228868968912e+00 -1.634936373660691444e+00 -1.002126108708989660e+00 -1.634936373660691444e+00 -7.550805178624688807e+00 -3.346959371068228606e+00 -1.002126108708989660e+00 -3.346959371068228606e+00 2.788196472296291972e+00
-1.376751881920918485e+01 3.640274478910840439e-01 -5.208193493722138356e+00 3.640274478910840439e-01 -7.035304935223241074e+00 -1.586732711045937272e+00 -5.208193493722138356e+00 -1.586732711045937272e+00 -4.726585069166976183e+00
-5.461271749657049313e+00 -1.493877370647304970e+00 -2.162218858665629462e+00 -1.493877370647304970e+00 -1.078523346019843032e+01 6.827148236382968305e-01 -2.162218858665629462e+00 6.827148236382968305e-01 -1.594319431531536146e+01
3.508588764048997444e+00 -9.155461311960500836e+00 -6.050965961865653053e-01 -9.155461311960500836e+00 -6.469871886354618518e+00 3.528166396426683615e+00 -6.050965961865653053e-01 3.528166396426683615e+00 -1.236630383868810057e+01
-1.076228438389092767e+00 -5.237263767957633931e+00 3.522347343683482457e+00 -5.237263767957633931e+00 -1.315677938383088375e+01 -2.843975801775967316e+00 3.522347343683482457e+00 -2.843975801775967316e+00 -1.263591646250477929e+01
-6.378887659163920532e+00 -1.153436522569138756e+00 5.746889709097495746e+00 -1.153436522569138756e+00 -9.181392614895438342e+00 -1.532805821211919550e+00 5.746889709097495746e+00 -1.532805821211919550e+00 -1.445328437435374269e+01
-7.924164115818101095e+00 5.979877018099574171e-01 -2.612042481974715447e+00 5.979877018099574171e-01 -3.191630703569467187e+01 1.896170187116778427e+00 -2.612042481974715447e+00 1.896170187116778427e+00 -4.090157952304879885e+00
-1.308396704432392177e+01 -9.467920318640276056e-01 -3.405162674536667211e+00 -9.467920318640276056e-01 -1.478935119992222491e+00 3.835937166397596632e-01 -3.405162674536667211e+00 3.835937166397596632e-01 -1.589375504920825932e+01
-3.987298994454160361e+00 1.994024313827423567e-01 3.027787238404815895e+00 1.994024313827423567e-01 -3.489936106628352075e+00 -1.387683499451742630e+00 3.027787238404815895e+00 -1.387683499451742630e+00 -7.517471663129387416e+00
-3.421088945326558495e+00 6.896475006788791440e-01 7.214103870463008938e-01 6.896475006788791440e-01 6.875682732282229814e+00 5.991195682439364845e+00 7.214103870463008938e-01 5.991195682439364845e+00 1.251700484726714713e+01
-5.414813972001537579e+00 1.631030312854301778e+00 -1.113536223827682470e+00 1.631030312854301778e+00 -5.744818729857276374e+00 -3.057526809885824370e+00 -1.113536223827682470e+00 -3.057526809885824370e+00 -1.068490611153803727e+01
-5.959388945109997060e+00 2.722879528898325852e+00 1.476459288870818620e-01 2.722879528898325852e+00 -6.574309285472982545e+00 -9.816519677543693589e-01 1.476459288870818620e-01 -9.816519677543693589e-01 -1.730773279839165113e+01
5.504138054126310742e-01 1.969198191405239662e+00 1.323332971104360878e+00 1.969198191405239662e+00 4.588805156681871611e-01 2.808320795559640981e+00 1.323332971104360878e+00 2.808320795559640981e+00 -1.728941700779800694e+00
-9.124048867522946082e+00 -1.260241786962053467e+00 -6.793393055758284449e-01 -1.260241786962053467e+00 6.779749827799597117e-01 -1.326252583058062484e+00 -6.793393055758284449e-01 -1.326252583058062484e+00 -3.584019916687267049e+00
-7.534765991357845749e+00 -1.746049398878499082e+00 2.351939761518512917e+00 -1.746049398878499082e+00 -9.726434486262020007e-01 -1.385009617596875964e-01 2.351939761518512917e+00 -1.385009617596875964e-01 4.979406443054242182e+00
-1.730655394958074211e+01 2.688712750430911402e+00 -1.177997458548645460e+00 2.688712750430911402e+00 -6.800720521239838945e+00 -1.257382505097610847e+00 -1.177997458548645460e+00 -1.257382505097610847e+00 -1.398796884293282794e+01
-6.909095579286855582e+00 -2.874069954411496930e+00 -2.456564794770998095e+00 -2.874069954411496930e+00 -1.474833665899798341e+01 -1.348218179538682726e+00 -2.456564794770998095e+00 -1.348218179538682726e+00 -1.411840896027261039e+01
-9.048756459400758345e+00 3.767752936964804622e+00 -3.970424448467881007e+00 3.767752936964804622e+00 -8.492381206927740678e+00 -2.853187651843669848e+00 -3.970424448467881007e+00 -2.853187651843669848e+00 -2.466084501739947399e+01
6.400915356521183597e+00 2.443319726872931863e+00 1.778408512912722950e+00 2.443319726872931863e+00 -9.804740995956077398e+00 2.338731553504456606e+00 1.778408512912722950e+00 2.338731553504456606e+00 -9.091743051520474239e+00
-5.632886686116943764e+00 2.608721535698187211e+00 -1.814975691485260167e+00 2.608721535698187211e+00 -1.441476708804369977e+01 1.379555782854980928e+00 -1.814975691485260167e+00 1.379555782854980928e+00 -6.663313447826738845e+00
-7.684656125596326603e+00 2.812011197311357069e+00 -9.855613197666199810e-01 2.812011197311357069e+00 -1.710232802032648269e+00 4.112353188643286805e-01 -9.855613197666199810e-01 4.112353188643286805e-01 -4.319591625039803873e+00
-2.015432098263359606e+01 4.751690290237625014e+00 2.498400710676307757e+00 4.751690290237625014e+00 -1.073519677121208993e+01 3.025943960790995924e+00 2.498400710676307757e+00 3.025943960790995924e+00 -1.119564422633285439e+01
-3.094061154922204349e+00 3.588439181234600595e-01 6.302354505991108802e+00 3.588439181234600595e-01 -3.703798364922129771e+00 2.749941975651877257e+00 6.302354505991108802e+00 2.749941975651877257e+00 -1.307285224636055077e+01
-5.092099465833705985e+00 -5.415124022872303655e+00 -1.194755748526425521e+00 -5.415124022872303655e+00 -2.250126735392631305e-01 1.937868423951854213e+00 -1.194755748526425521e+00 1.937868423951854213e+00 -2.422386664957769398e+01
-7.497555341908400450e+00 3.841364383196015364e+00 7.734685770173137520e-01 3.841364383196015364e+00 -7.266088561303861937e+00 -1.815895425216025594e-01 7.734685770173137520e-01 -1.815895425216025594e-01 -1.427647735775217086e+01
8.662076441279531469e-01 1.048254961325636003e+00 -7.893721060870566575e-01 1.048254961325636003e+00 -8.588371443387547544e+00 -2.035198934588617448e+00 -7.893721060870566575e-01 -2.035198934588617448e+00 -9.786562801319080407e+00
-2.724087511437527809e+00 -9.097967313682405743e-01 6.075254072455925636e-01 -9.097967313682405743e-01 3.777240795745948621e-01 -2.855641913024682399e+00 6.075254072455925636e-01 -2.855641913024682399e+00 -3.777148735282976233e+00
-1.251242748289485363e+01 4.899604776503663217e+00 -1.094412042152771658e+00 4.899604776503663217e+00 -1.047489677455137880e+01 -4.749954689589753087e+00 -1.094412042152771658e+00 -4.749954689589753087e+00 -1.084840345045286014e+01
-9.667863731208525380e+00 5.701925916550846907e+00 -2.368481634520222201e+00 5.701925916550846907e+00 -1.239801658237037074e+01 9.558908777729163697e-01 -2.368481634520222201e+00 9.558908777729163697e-01 -7.344122415620908839e+00
-1.428030756811502933e+01 -2.543750247429907851e+00 -2.307129274216871195e+00 -2.543750247429907851e+00 -1.272372446556883929e+01 -1.362739372278114258e+00 -2.307129274216871195e+00 -1.362739372278114258e+00 -8.188457985073235079e+00
-6.772315841966725536e+00 5.595127247848025398e+00 9.066454097198178852e-01 5.595127247848025398e+00 -1.634565806647928099e+01 5.177524158205618621e-01 9.066454097198178852e-01 5.177524158205618621e-01 -6.594025774058512646e+00
9.674488653309804675e+00 -1.120352318258187152e+00 -1.203717109441132527e+00 -1.120352318258187152e+00 -1.358352769597813392e+01 3.563376533643249022e+00 -1.203717109441132527e+00 3.563376533643249022e+00 -1.014708077987794965e+01
-8.844013349561054227e+00 3.376912603722587836e+00 6.394697498264259927e+00 3.376912603722587836e+00 -1.831264014655325623e+00 3.808292174084779269e+00 6.394697498264259927e+00 3.808292174084779269e+00 1.786852660270940030e+00
1.769447409511794911e+00 7.394562985295189961e-01 -3.348518447165316658e+00 7.394562985295189961e-01 -4.101332879305584100e+00 -3.700460250714527000e+00 -3.348518447165316658e+00 -3.700460250714527000e+00 4.105246610335968604e+00
-3.667651737727056105e+00 7.290078043208821912e-01 9.960434247146652265e-01 7.290078043208821912e-01 -2.003710906808078729e+00 -2.517972660744401736e+00 9.960434247146652265e-01 -2.517972660744401736e+00 -1.497552354285622478e+01
3.256128592626308826e+00 2.022982286219028314e-01 -1.484822979711763746e-01 2.022982286219028314e-01 -3.524003002777481797e+00 6.044348942611435405e+00 -1.484822979711763746e-01 6.044348942611435405e+00 -1.054863459664838388e+01
-6.604063719097573448e-02 -1.349881677009852066e+00 -2.791870239920646757e+00 -1.349881677009852066e+00 -6.295468808575055419e+00 -3.875802494580117497e+00 -2.791870239920646757e+00 -3.875802494580117497e+00 -2.304293228715417641e+00
-1.702013466763201066e+01 6.920971132153217020e+00 -6.045304039458866407e-01 6.920971132153217020e+00 8.747938965609274309e-01 -1.124100681973811966e+00 -6.045304039458866407e-01 -1.124100681973811966e+00 -1.464608158862463050e+01
-5.898280525196928359e+00 -1.090764479254205455e+01 3.156727520513878282e+00 -1.090764479254205455e+01 -8.947821746978505963e-01 -2.941398723438008567e+00 3.156727520513878282e+00 -2.941398723438008567e+00 -1.512465057431935378e+01
-6.316796434183711284e+00 2.747581109290508361e-01 -2.966915351720472938e+00 2.747581109290508361e-01 1.615770309263037330e+00 -4.236830309819468732e-01 -2.966915351720472938e+00 -4.236830309819468732e-01 -2.288210015382028217e+01
-1.477094458403499466e+01 3.195458412444263652e-01 4.841630745849279549e+00 3.195458412444263652e-01 -6.358602781957999106e+00 -4.789909652351829195e+00 4.841630745849279549e+00 -4.789909652351829195e+00 -2.568916125993791510e+01
-7.105119105905474797e+00 1.647591417933057523e+00 1.161109048724006554e+00 1.647591417933057523e+00 -7.324350398596148892e+00 5.032734423579694472e+00 1.161109048724006554e+00 5.032734423579694472e+00 -9.236563460224397559e+00
-2.001838562479666805e+01 4.997923454017197287e+00 -2.785818614243975588e+00 4.997923454017197287e+00 -1.103769394327105324e+01 3.758967677405419483e+00 -2.785818614243975588e+00 3.758967677405419483e+00 -5.538484382079292168e+00
-4.741390934717695238e-01 1.667820047276351358e+00 -4.455838033405782883e-01 1.667820047276351358e+00 4.974592470789091614e+00 -8.097464415773542035e-01 -4.455838033405782883e-01 -8.097464415773542035e-01 -1.084145506911382562e+00
-5.647809462658770485e+00 3.443726961325878300e+00 -6.236279181043963282e-01 3.443726961325878300e+00 -9.218554771055302410e+00 -9.105786715572964374e-01 -6.236279181043963282e-01 -9.105786715572964374e-01 -9.121046870344702739e+00
-7.395636855705278734e+00 2.754919211597758877e-01 -7.939251083406351217e-01 2.754919211597758877e-01 -8.974928810248961497e+00 -2.504809486692198828e+00 -7.939251083406351217e-01 -2.504809486692198828e+00 6.836826226644514115e+00
-4.060431729606888140e+00 -1.285974844354761615e+00 -6.652415552733727644e+00 -1.285974844354761615e+00 -1.074763161823945978e+01 -1.719873492746199828e+00 -6.652415552733727644e+00 -1.719873492746199828e+00 -1.062324447612560974e+01
-2.842125727135795810e+00 4.564116631391350154e+00 -2.668373803548620860e+00 4.564116631391350154e+00 -1.309348921877914229e+01 -3.354670930813205665e+00 -2.668373803548620860e+00 -3.354670930813205665e+00 -7.439081563968740873e+00
-1.407350108461027993e+01 -5.894984856479725366e+00 1.143269220826749200e+00 -5.894984856479725366e+00 -7.538442583875215597e+00 9.261211782591066699e-01 1.143269220826749200e+00 9.261211782591066699e-01 -8.999878605171724999e+00
-2.176839798656324376e+00 7.249047576643302015e+00 -9.531363329188536904e-01 7.249047576643302015e+00 -2.993864317424903110e+00 -8.405318647649957509e-01 -9.531363329188536904e-01 -8.405318647649957509e-01 9.183127031806936458e+00
-1.460262876549200151e+01 -2.455856130586617780e+00 -1.637404587781357224e+00 -2.455856130586617780e+00 -1.154536008714550022e+01 4.759348472011298625e+00 -1.637404587781357224e+00 4.759348472011298625e+00 -1.175478367885595254e+01
1.244108691216280249e+01 -7.752425906451134718e-01 1.710715231592554231e+00 -7.752425906451134718e-01 6.404675531572373792e+00 -5.834670191854241850e+00 1.710715231592554231e+00 -5.834670191854241850e+00 -5.730487538568553418e+00
-6.380563185183123487e+00 -2.205110338556884209e+00 -1.359236634816988198e+00 -2.205110338556884209e+00 -2.302723942245347821e+00 -6.521412797319628751e+00 -1.359236634816988198e+00 -6.521412797319628751e+00 5.901013029943602106e+00
-1.235448026019213330e+01 -1.759749461603614895e+00 6.644578216032261508e+00 -1.759749461603614895e+00 -2.178444604543244978e+01 7.086501007677923347e-01 6.644578216032261508e+00 7.086501007677923347e-01 -7.556127848868491981e+00
-7.591836481050863172e-01 -1.702259231042058785e+00 1.611437388316155905e+00 -1.702259231042058785e+00 -4.863836696063741805e+00 6.229508840162321093e+00 1.611437388316155905e+00 6.229508840162321093e+00 -3.565574872220804270e+00
-1.375263455925018974e+01 2.506690166454812907e+00 -6.895559073081180657e+00 2.506690166454812907e+00 -5.100806009189660983e+00 1.106953814783481427e+00 -6.895559073081180657e+00 1.106953814783481427e+00 -1.259294397721669334e+01
9.992641685139735334e-04 2.268089098930596403e+00 -1.076133489921511366e+00 2.268089098930596403e+00 3.398127339275833769e+00 5.910425498056039118e+00 -1.076133489921511366e+00 5.910425498056039118e+00 -3.495500081029917272e+00