-1.097687968459962714e-02 2.693036425563101466e-03 -4.101576514528553451e-03 2.693036425563101466e-03 -1.906965786627461482e-02 2.056858124889198326e-03 -4.101576514528553451e-03 2.056858124889198326e-03 -8.267315742871187215e-03
-1.263439981410569186e-02 -3.165587322992848701e-03 -9.813337553352470717e-04 -3.165587322992848701e-03 -8.773801725418363742e-03 1.133383159150889042e-03 -9.813337553352470717e-04 1.133383159150889042e-03 -5.848924443374326973e-03
1.408359085200802012e-03 3.853925915431757540e-03 1.840209101620664343e-03 3.853925915431757540e-03 2.859147949439358547e-03 -7.829349047507958709e-04 1.840209101620664343e-03 -7.829349047507958709e-04 -3.027543865655688785e-03
5.090743363816783995e-03 4.551945088524912177e-03 1.262079956572038919e-02 4.551945088524912177e-03 -2.648684261714574599e-03 6.647818886960006959e-03 1.262079956572038919e-02 6.647818886960006959e-03 -2.673207151070169756e-03
-1.222139291373686674e-02 -3.723497099228175898e-04 -1.101563945627136312e-04 -3.723497099228175898e-04 -6.001960005631857588e-03 -2.058562056880564387e-03 -1.101563945627136312e-04 -2.058562056880564387e-03 1.290694155159650752e-03
-5.001726960663437430e-03 2.419677050376792000e-03 -2.953201250457293276e-03 2.419677050376792000e-03 -1.315785021845701334e-03 -9.114556916145958795e-03 -2.953201250457293276e-03 -9.114556916145958795e-03 7.793541509652767221e-03
1.638689496473271813e-03 3.927500825007670254e-03 -4.226693806466009541e-03 3.927500825007670254e-03 -1.159833426524557211e-02 -1.626212719730631140e-03 -4.226693806466009541e-03 -1.626212719730631140e-03 -1.648257729963251064e-03
-1.363813434569373069e-03 1.468352470918791834e-03 3.330931141246621686e-03 1.468352470918791834e-03 -4.642940050071164143e-03 -1.900152555265647268e-03 3.330931141246621686e-03 -1.900152555265647268e-03 -1.674267346792631533e-02
1.847199591841653700e-03 4.396119571688110461e-03 1.992427026182705483e-03 4.396119571688110461e-03 -1.186067113531557096e-02 -4.810200011626583096e-03 1.992427026182705483e-03 -4.810200011626583096e-03 -6.720320256966266087e-03
-7.126467738805741456e-03 -1.061381734025612471e-02 -6.160606684593559687e-03 -1.061381734025612471e-02 -1.967889781356120874e-02 3.445437867670076066e-04 -6.160606684593559687e-03 3.445437867670076066e-04 1.232203100688260798e-02
-7.691580216572339000e-03 -3.902522305485885135e-03 8.574460406955902248e-04 -3.902522305485885135e-03 -1.635817778124452893e-02 -4.319998126388837787e-04 8.574460406955902248e-04 -4.319998126388837787e-04 -1.326911136013501046e-02
-1.002167912797445474e-03 -4.349969853211330117e-03 2.659101340445673908e-03 -4.349969853211330117e-03 5.308378545527208357e-03 1.020998545830235048e-02 2.659101340445673908e-03 1.020998545830235048e-02 3.368604890330453654e-04
-1.137606164225461562e-02 7.191753924262481168e-03 -7.317027253928083674e-03 7.191753924262481168e-03 -6.458439017062456329e-03 -5.132324297613418893e-03 -7.317027253928083674e-03 -5.132324297613418893e-03 -1.064589869716316486e-02
-7.761185526344187291e-03 -6.339862826688925576e-03 1.632710130730675741e-03 -6.339862826688925576e-03 -1.596405768749063064e-02 3.860598088687327255e-03 1.632710130730675741e-03 3.860598088687327255e-03 2.876218476898648874e-03
-1.497519667214956655e-02 1.864731990976259716e-03 7.009938763425501047e-03 1.864731990976259716e-03 -1.513642733588938492e-02 8.609880971245289366e-03 7.009938763425501047e-03 8.609880971245289366e-03 -2.012768104423958912e-03
9.380051989833653771e-04 -6.142643621329267264e-03 5.766336794620639632e-03 -6.142643621329267264e-03 -2.101646570225623734e-02 2.370200607535915497e-03 5.766336794620639632e-03 2.370200607535915497e-03 -3.778871768193011859e-03
-1.960838748496610516e-03 7.450913866187405636e-03 7.711746532558067316e-03 7.450913866187405636e-03 5.204170309161460688e-04 1.053641638558604557e-02 7.711746532558067316e-03 1.053641638558604557e-02 -7.438755406410184606e-04
-1.018174262950772950e-02 -5.446840183975802576e-04 1.085935206775924620e-03 -5.446840183975802576e-04 -1.510606863550108953e-02 -1.198706793662383287e-02 1.085935206775924620e-03 -1.198706793662383287e-02 -1.654334463248210985e-02
-9.577658168759118837e-03 -7.666401968758525427e-03 -5.154050990880618306e-03 -7.666401968758525427e-03 -9.490776361726823221e-03 3.513595147324721866e-03 -5.154050990880618306e-03 3.513595147324721866e-03 -9.878642463336587826e-03
1.556850828814690304e-03 4.316253220913308626e-04 -6.026152095003782516e-03 4.316253220913308626e-04 -9.434365602247090851e-03 1.600204351203075772e-03 -6.026152095003782516e-03 1.600204351203075772e-03 1.526710581245800322e-03
9.136152537721514699e-03 3.121310057253832721e-03 -6.754785870359393193e-03 3.121310057253832721e-03 9.981290322420862879e-03 -1.275745740803160139e-03 -6.754785870359393193e-03 -1.275745740803160139e-03 8.363434983409790552e-03
3.339956363442649501e-04 -4.714992031420360552e-03 9.823386383045141970e-04 -4.714992031420360552e-03 -1.136666817102016322e-02 1.323318523360642561e-03 9.823386383045141970e-04 1.323318523360642561e-03 1.394991645105897633e-02
7.547532427456078372e-03 4.733810181434898435e-04 3.794506748553349088e-03 4.733810181434898435e-04 1.454956944032821317e-02 -4.235612923006897078e-04 3.794506748553349088e-03 -4.235612923006897078e-04 1.720471990549720103e-04
-1.067675671828153053e-02 4.301560708430979089e-03 -1.893143340517280298e-03 4.301560708430979089e-03 -3.190659465151521264e-05 -1.022196915582404770e-03 -1.893143340517280298e-03 -1.022196915582404770e-03 3.826893939407557434e-03
-3.037118340654793545e-04 5.343287306068272673e-03 4.604355040654954309e-03 5.343287306068272673e-03 1.053622914031226944e-03 -2.596080822801630390e-03 4.604355040654954309e-03 -2.596080822801630390e-03 -1.412283121988244620e-02
-7.107256373716273369e-03 -2.473179266603863381e-03 1.093845695442068923e-02 -2.473179266603863381e-03 5.899305905038457025e-03 4.092226733857981351e-03 1.093845695442068923e-02 4.092226733857981351e-03 -3.038603819826753757e-03
-3.838209795452783915e-03 1.688365667606176769e-03 5.433052690316726371e-03 1.688365667606176769e-03 -4.253881820218357798e-03 4.340888457433168812e-03 5.433052690316726371e-03 4.340888457433168812e-03 -1.819468566795354441e-03
-6.228339541627644048e-03 -8.715125298125932576e-03 5.666254195787102585e-03 -8.715125298125932576e-03 -1.022440958589226727e-02 -3.116135846188474996e-04 5.666254195787102585e-03 -3.116135846188474996e-04 -1.016960289425788803e-03
-2.101445593631770525e-02 -8.897520919311618925e-03 1.388717055981647302e-03 -8.897520919311618925e-03 -1.384827971645309456e-02 -5.111427725059961708e-03 1.388717055981647302e-03 -5.111427725059961708e-03 -3.680530550405595232e-03
4.956138978007986785e-03 8.065902243378934638e-04 -8.551404272244890123e-03 8.065902243378934638e-04 -1.463226943624616402e-02 3.939378416874225568e-03 -8.551404272244890123e-03 3.939378416874225568e-03 -1.795323288741875259e-02
-1.320762001222680615e-02 -8.181875724446972808e-03 7.660204150196523072e-03 -8.181875724446972808e-03 -5.976650686126402240e-03 5.995549975759577495e-03 7.660204150196523072e-03 5.995549975759577495e-03 -5.593022569213113721e-03
-3.918456878284265477e-03 -2.363746887099752066e-03 -7.658643772915052191e-04 -2.363746887099752066e-03 8.737395002687085160e-03 -1.240760833850759574e-02 -7.658643772915052191e-04 -1.240760833850759574e-02 1.535018029892350720e-03
-5.862025371029555912e-03 -3.470840809812420565e-04 -1.047735922623693923e-02 -3.470840809812420565e-04 -1.300938968238875455e-02 5.374987930918633319e-03 -1.047735922623693923e-02 5.374987930918633319e-03 -2.198655849965576795e-02
-9.335799690131141998e-03 -1.219974736008830503e-02 -3.879066714190815453e-03 -1.219974736008830503e-02 -6.443272149886560517e-03 -1.460950041095494117e-03 -3.879066714190815453e-03 -1.460950041095494117e-03 3.617647345962320734e-03
-1.529993615046014877e-03 -9.711663369691831554e-03 -2.162096210260715592e-03 -9.711663369691831554e-03 9.239655483556036622e-03 -2.432234966738069069e-03 -2.162096210260715592e-03 -2.432234966738069069e-03 -1.005283674153086351e-02
-1.082147859038338697e-02 -6.102198642193544520e-04 -1.137383966500580147e-03 -6.102198642193544520e-04 -1.146318686814282173e-02 -3.015322990787209188e-03 -1.137383966500580147e-03 -3.015322990787209188e-03 -2.092089571452071875e-02
-4.394652817043528080e-03 3.611131210434898736e-03 -1.764724290252232255e-04 3.611131210434898736e-03 -2.471700028941028787e-04 7.746205904442068045e-03 -1.764724290252232255e-04 7.746205904442068045e-03 -2.450264189999095538e-02
9.004381797055868025e-03 5.208352120275802632e-04 -1.308950569352859477e-03 5.208352120275802632e-04 6.368330349812079648e-03 4.657713702172129426e-03 -1.308950569352859477e-03 4.657713702172129426e-03 8.080195299277207269e-03
-4.194543792958584875e-04 1.358363972951564386e-02 -4.470268700103603894e-03 1.358363972951564386e-02 1.249668715675220261e-03 1.949610273579146374e-03 -4.470268700103603894e-03 1.949610273579146374e-03 -1.094525395785877694e-02
2.391053489525491512e-03 -9.388165951697304262e-04 6.197625075219173781e-03 -9.388165951697304262e-04 -6.631915521707256768e-03 -5.630153307002993060e-03 6.197625075219173781e-03 -5.630153307002993060e-03 -1.402777927740436921e-02
-1.180472224751115407e-02 2.351788155614559922e-03 3.397253417218257400e-05 2.351788155614559922e-03 -1.565130190670174434e-02 -2.715012779195335579e-03 3.397253417218257400e-05 -2.715012779195335579e-03 -2.218107513156392248e-04
-1.311441555644999452e-02 -4.957156343995504713e-03 -6.149996119079558302e-03 -4.957156343995504713e-03 -1.996087671285036100e-02 4.329422805168921750e-04 -6.149996119079558302e-03 4.329422805168921750e-04 -1.195303298736039195e-02
-2.248400677698866520e-02 8.679941911183329355e-04 1.044666348435584506e-03 8.679941911183329355e-04 -1.614614747472914794e-02 -7.666726527233071013e-03 1.044666348435584506e-03 -7.666726527233071013e-03 -3.163480813662863239e-02
-7.964852210630883958e-04 -8.901328239878409255e-04 3.653479849854016862e-03 -8.901328239878409255e-04 -1.581793771734457676e-02 -1.802173345007531888e-03 3.653479849854016862e-03 -1.802173345007531888e-03 -6.291603478127597189e-03
5.190414023048014851e-03 -1.995485365654388245e-03 -3.512452951154685071e-03 -1.995485365654388245e-03 -2.871999216729551919e-03 6.430726716543534900e-03 -3.512452951154685071e-03 6.430726716543534900e-03 3.199628513765415561e-03
6.779121514441212651e-03 -5.806388558681433582e-03 8.327084434260645027e-03 -5.806388558681433582e-03 4.730845464600103197e-03 5.573511611685602954e-03 8.327084434260645027e-03 5.573511611685602954e-03 2.088940105947150946e-02
-3.600227293991981048e-03 -7.414569558547387355e-03 1.396706187662777841e-03 -7.414569558547387355e-03 -4.216451489990435237e-04 4.370129927687932923e-03 1.396706187662777841e-03 4.370129927687932923e-03 -1.364663528112318273e-02
3.474585715287950918e-03 -2.062157166137073075e-03 -2.496790895627079912e-04 -2.062157166137073075e-03 -4.932127892400712914e-03 -5.111496381660345784e-03 -2.496790895627079912e-04 -5.111496381660345784e-03 -1.071285760706563832e-02
-3.749274531918073312e-03 1.150765762066473935e-03 2.651062276691536039e-03 1.150765762066473935e-03 -7.290207489214163041e-03 1.136610643519883265e-02 2.651062276691536039e-03 1.136610643519883265e-02 -5.402463054090771285e-04
-2.056004910591690063e-02 -2.987704312905175609e-03 2.120471585900200392e-03 -2.987704312905175609e-03 -3.109538571042416710e-03 -7.125163263398432735e-03 2.120471585900200392e-03 -7.125163263398432735e-03 -3.605108154128421928e-03
-3.285399332173303665e-03 5.871712193192927219e-03 -8.711742400179705095e-03 5.871712193192927219e-03 8.154968578605287883e-04 -2.950561092097044383e-03 -8.711742400179705095e-03 -2.950561092097044383e-03 -1.260426580804592522e-02
-1.469367340302660252e-02 1.705336330919453086e-03 -8.553925841931746960e-04 1.705336330919453086e-03 -6.956592584926577817e-03 2.302180641082039909e-03 -8.553925841931746960e-04 2.302180641082039909e-03 1.217229720295267062e-02
-1.691497032734632158e-02 1.981629215394927531e-03 -1.275215212527460373e-03 1.981629215394927531e-03 -6.217185964819690359e-03 6.281205123923875493e-04 -1.275215212527460373e-03 6.281205123923875493e-04 4.304232074336857700e-03
7.442606417540854370e-03 1.943849360655956152e-03 -7.325035110136592206e-05 1.943849360655956152e-03 -2.591618143776624333e-02 7.541228503238936280e-03 -7.325035110136592206e-05 7.541228503238936280e-03 2.018067145671833661e-03
2.578554665176150534e-03 7.040671954361350012e-04 -6.086170446758276328e-03 7.040671954361350012e-04 8.313247008528562576e-03 -7.569639852779957295e-04 -6.086170446758276328e-03 -7.569639852779957295e-04 -2.130576589175005135e-03
1.817901948004757833e-03 -9.492960889920883018e-04 3.111423506798433828e-03 -9.492960889920883018e-04 -9.755110514717106607e-03 2.889051019661464850e-03 3.111423506798433828e-03 2.889051019661464850e-03 -8.888826497099265242e-03
-1.006341609949923561e-02 -2.689753391762886477e-03 -1.508678861381123606e-03 -2.689753391762886477e-03 -3.946181661821437925e-03 4.925349613490003463e-03 -1.508678861381123606e-03 4.925349613490003463e-03 -1.147130707151559556e-02
-9.532538299288108308e-03 3.110655801175949732e-03 -3.329333314910396229e-03 3.110655801175949732e-03 -5.558756684112014200e-03 -1.301535656511310091e-03 -3.329333314910396229e-03 -1.301535656511310091e-03 3.864867280929430889e-03
4.194231717502290742e-03 -1.534662263872175363e-04 1.108616850939384262e-03 -1.534662263872175363e-04 1.041745322164670980e-03 -3.596376282861310850e-03 1.108616850939384262e-03 -3.596376282861310850e-03 -4.859333171465536616e-03
4.824006229813037130e-03 8.438021017464094166e-04 -4.742972716831694510e-03 8.438021017464094166e-04 9.536720110402449602e-03 -1.003578493859895015e-03 -4.742972716831694510e-03 -1.003578493859895015e-03 -1.563354481323860849e-03
-1.931655948427630706e-02 6.502379241308675270e-03 -4.083064198461184083e-03 6.502379241308675270e-03 3.153853285836187483e-03 -4.617530866419693701e-03 -4.083064198461184083e-03 -4.617530866419693701e-03 -1.057070723672364973e-02
-1.399099806412553923e-02 -5.573105913592420538e-04 -1.539474467408231571e-03 -5.573105913592420538e-04 -1.036933118628615043e-02 -5.079096707787886418e-03 -1.539474467408231571e-03 -5.079096707787886418e-03 -2.814690928237516612e-02
-1.034511413087772433e-03 2.084139761278434432e-03 -4.434174052828620746e-03 2.084139761278434432e-03 5.525046293323119520e-04 -4.321851854599225405e-03 -4.434174052828620746e-03 -4.321851854599225405e-03 -2.135576037984838072e-03
4.493780464980805765e-03 -5.007069692475192915e-03 -2.349753423639521898e-03 -5.007069692475192915e-03 -9.819859930389017791e-03 -9.747758016966813835e-03 -2.349753423639521898e-03 -9.747758016966813835e-03 -2.584402959227103096e-03
-9.570505399300856253e-03 -2.721266771339471424e-03 1.268937502648646853e-02 -2.721266771339471424e-03 -5.458929987152636928e-03 8.407375207656008192e-04 1.268937502648646853e-02 8.407375207656008192e-04 -1.527056360851374375e-02
1.613483161868392232e-02 4.621138458694454276e-03 -4.555596371363553922e-03 4.621138458694454276e-03 3.414448774860065917e-03 7.635618845749669349e-03 -4.555596371363553922e-03 7.635618845749669349e-03 -1.745076019523951819e-03
2.172005230148968402e-02 -4.795507499144254643e-03 1.486034666272418973e-03 -4.795507499144254643e-03 5.233286949233706582e-03 -4.794359061465091471e-03 1.486034666272418973e-03 -4.794359061465091471e-03 1.005668775266153371e-02
-4.680083270879295369e-03 5.812910935717980655e-03 5.646119087347002685e-03 5.812910935717980655e-03 -4.085373556837760579e-03 3.832143048582425503e-03 5.646119087347002685e-03 3.832143048582425503e-03 -7.338635358521892332e-03
-9.109857059774168321e-04 4.499516411867492648e-03 -1.356866634912265099e-03 4.499516411867492648e-03 2.061064902040043827e-03 5.141755217902627823e-03 -1.356866634912265099e-03 5.141755217902627823e-03 -3.194728929101597718e-03
-5.191250385270881722e-03 -8.000266533411145783e-03 1.734247001190544583e-03 -8.000266533411145783e-03 -6.606007017325715193e-03 5.546766745081192773e-03 1.734247001190544583e-03 5.546766745081192773e-03 -8.616303484135823948e-03
-8.153470616415076653e-04 4.898929305360140603e-03 -5.286614403205253283e-03 4.898929305360140603e-03 5.899536840876114761e-04 1.341337760207067346e-02 -5.286614403205253283e-03 1.341337760207067346e-02 -1.612892090954171076e-02
7.166126287791604009e-04 -6.160431922338035007e-03 1.062684961131096784e-02 -6.160431922338035007e-03 6.794319589162738397e-04 -1.500352688207195377e-03 1.062684961131096784e-02 -1.500352688207195377e-03 4.321015492376356799e-03
3.077507146208384101e-03 -3.205445600270739274e-03 -2.674237000075940871e-03 -3.205445600270739274e-03 -5.044974377396682294e-03 2.467855259319484858e-03 -2.674237000075940871e-03 2.467855259319484858e-03 -6.749855078149946501e-03
-8.353361187680614225e-03 4.780090971603322830e-03 4.059914441113283024e-04 4.780090971603322830e-03 -8.517750055038127849e-03 2.196705378363738529e-03 4.059914441113283024e-04 2.196705378363738529e-03 9.643031735343620889e-03
-4.560670718282897745e-03 -4.347442042015346904e-03 -1.447792939858132339e-03 -4.347442042015346904e-03 -2.811868517810792861e-03 3.691634195140541374e-03 -1.447792939858132339e-03 3.691634195140541374e-03 6.921134571582434822e-03
-8.546111472506142184e-03 -2.615304670909350798e-03 -1.255646833115990971e-02 -2.615304670909350798e-03 1.708732960185758987e-02 -5.411425861195539450e-03 -1.255646833115990971e-02 -5.411425861195539450e-03 -4.280146090620073375e-03
-1.874543643322148373e-03 -2.800502729692558724e-04 -6.838334711518467141e-03 -2.800502729692558724e-04 1.567199250945404887e-03 -2.353760472498338946e-03 -6.838334711518467141e-03 -2.353760472498338946e-03 4.165277356667318291e-03
-5.292163104818162732e-03 1.951545141408170389e-03 5.350839532110592163e-03 1.951545141408170389e-03 -1.128158391861612195e-02 1.378281252723170596e-03 5.350839532110592163e-03 1.378281252723170596e-03 1.445202713570890776e-03
-9.346497636772907458e-03 -7.622380604893670307e-04 2.461588784157098101e-04 -7.622380604893670307e-04 -1.157090283263731596e-02 -5.286920237152421473e-03 2.461588784157098101e-04 -5.286920237152421473e-03 2.381741157909673771e-03
-8.217221390626848823e-03 3.258604533495886805e-03 7.667069810234994429e-04 3.258604533495886805e-03 -1.081188539085690438e-02 -8.244958657182274026e-03 7.667069810234994429e-04 -8.244958657182274026e-03 6.454644179513920055e-03
2.137947811452673569e-03 7.559990479671340781e-03 -1.588039649916729015e-03 7.559990479671340781e-03 -5.766343036129765141e-03 2.327271507768090709e-03 -1.588039649916729015e-03 2.327271507768090709e-03 -1.008030562319387445e-02
9.711363777253789742e-03 4.609354489464786297e-05 -3.412694910795692309e-03 4.609354489464786297e-05 -1.765722931712373505e-05 -1.773106637008293757e-03 -3.412694910795692309e-03 -1.773106637008293757e-03 -5.659812958369190607e-03
-1.285270283729258002e-03 1.028266159056413775e-02 7.081803499500920890e-03 1.028266159056413775e-02 -5.710163212487690508e-03 -8.992597827826199694e-03 7.081803499500920890e-03 -8.992597827826199694e-03 -6.162685107132479315e-03
4.239364069991553158e-03 7.304537994167191982e-03 -4.217262886176799744e-03 7.304537994167191982e-03 1.620719567548941156e-02 -4.049971717075750641e-03 -4.217262886176799744e-03 -4.049971717075750641e-03 8.265349667496533700e-03
-1.573768439300397143e-02 -5.295090372598202852e-03 -7.376140586859323937e-03 -5.295090372598202852e-03 -2.264556824071215380e-03 3.300004463527870645e-03 -7.376140586859323937e-03 3.300004463527870645e-03 -9.156662136709167732e-03
-2.415419717002027095e-02 3.095576315127816260e-03 6.182196064659990081e-03 3.095576315127816260e-03 -2.750891470254563514e-02 2.683674161874276178e-03 6.182196064659990081e-03 2.683674161874276178e-03 -1.722594103652520456e-02
-1.009738863367141710e-03 4.664148698080915027e-03 6.802864215156072258e-03 4.664148698080915027e-03 -7.870780185085572700e-03 2.105754107381367733e-03 6.802864215156072258e-03 2.105754107381367733e-03 -6.229587843452821447e-04
-1.136591294841593144e-02 -5.875263611885553870e-03 -2.975957792730263372e-03 -5.875263611885553870e-03 -8.510647217652871077e-03 6.505212886451824938e-03 -2.975957792730263372e-03 6.505212886451824938e-03 -2.108396762345266656e-02
-8.922649235052426686e-03 -8.605980028041612705e-04 3.913114146472508690e-04 -8.605980028041612705e-04 -2.982817211259608785e-04 -8.619586517936038070e-04 3.913114146472508690e-04 -8.619586517936038070e-04 4.735183313442592424e-04
-4.947469521832134273e-03 2.975577060673584404e-04 -2.441241464406718675e-04 2.975577060673584404e-04 -5.135139218229192682e-04 -2.207540638206272141e-03 -2.441241464406718675e-04 -2.207540638206272141e-03 -3.705053439761190389e-03
-8.500024169120618672e-03 3.232040670656127789e-04 7.667893689439611582e-03 3.232040670656127789e-04 -3.947230235354586871e-03 -4.862366544900716472e-03 7.667893689439611582e-03 -4.862366544900716472e-03 1.030042492553639912e-03
-3.531046406840690835e-03 6.271393471577986836e-03 2.393306674319935440e-04 6.271393471577986836e-03 -8.179010871758190387e-03 6.673920878124449743e-03 2.393306674319935440e-04 6.673920878124449743e-03 -9.410023716656147619e-03
-2.291888392533458600e-03 -1.804208076982569695e-03 -1.234508090008449579e-04 -1.804208076982569695e-03 -1.661412958747875146e-02 -2.207846472153440331e-03 -1.234508090008449579e-04 -2.207846472153440331e-03 -2.883789427468345587e-02
-1.049958524023420804e-02 2.685228297646620899e-03 -6.552523525626021209e-03 2.685228297646620899e-03 -6.713579427110312296e-03 -2.987373512921504080e-04 -6.552523525626021209e-03 -2.987373512921504080e-04 -1.251406975966778447e-02
-8.470089891352882219e-03 4.873669917927691067e-03 -8.597553990721670467e-04 4.873669917927691067e-03 -3.090857734228648172e-03 -4.175500948615515524e-03 -8.597553990721670467e-04 -4.175500948615515524e-03 3.027331654345408445e-03
-4.249356726102091787e-03 3.323553677459827743e-03 4.576886158991941636e-03 3.323553677459827743e-03 -2.840904018264401708e-03 -4.509253166103870634e-03 4.576886158991941636e-03 -4.509253166103870634e-03 2.299365720466266336e-03
6.149272104020955809e-03 -2.917537267311995884e-03 -7.976648662878803160e-06 -2.917537267311995884e-03 -2.163119817757360765e-03 5.857743695769200391e-03 -7.976648662878803160e-06 5.857743695769200391e-03 -3.696109357183799838e-03
3.359848053026838911e-03 -4.864463691967012629e-03 -5.452345195024831288e-03 -4.864463691967012629e-03 -4.296305357746985944e-03 1.207610930581368321e-02 -5.452345195024831288e-03 1.207610930581368321e-02 1.178353232402878014e-03
-5.633586137022228522e-04 -2.583379351730458358e-03 6.198717339316202161e-03 -2.583379351730458358e-03 -2.124340697407335610e-02 3.528474905080827319e-03 6.198717339316202161e-03 3.528474905080827319e-03 -3.121378713854217285e-05
-1.256410793832999154e-02 -1.535217758184379173e-03 -2.999294795351940563e-03 -1.535217758184379173e-03 -1.341453852276808939e-02 -3.918163527355348306e-03 -2.999294795351940563e-03 -3.918163527355348306e-03 -1.131529430940501901e-02
-6.873393268278553229e-03 -4.310448617426237451e-03 6.378048379521080238e-03 -4.310448617426237451e-03 -8.402987426740511634e-03 -1.019623541369803037e-02 6.378048379521080238e-03 -1.019623541369803037e-02 -3.241970911675407744e-03
-1.371808183608716827e-02 -3.187051872876761095e-03 -1.245118655522451127e-04 -3.187051872876761095e-03 -1.734476064575464493e-02 1.950908507477329802e-04 -1.245118655522451127e-04 1.950908507477329802e-04 -1.210274182525382901e-02
-1.125588138403573434e-02 1.935248561080489017e-03 -2.704408455190460570e-03 1.935248561080489017e-03 1.154939459218952066e-02 2.171658202241569333e-03 -2.704408455190460570e-03 2.171658202241569333e-03 -1.479196468874101507e-02
-9.700035438190311374e-03 -1.949691413197782771e-03 -8.846440408625391022e-03 -1.949691413197782771e-03 -6.941344578132043440e-03 -1.370496842541369005e-02 -8.846440408625391022e-03 -1.370496842541369005e-02 -1.131042593228683002e-02
2.000310052208696069e-03 2.618132074543375824e-03 -4.022140827883437589e-03 2.618132074543375824e-03 1.568859492372890211e-03 2.940999100116191509e-04 -4.022140827883437589e-03 2.940999100116191509e-04 -5.983485138619244314e-04
1.752004094653682393e-03 2.983584916882093315e-03 7.265016758382097581e-03 2.983584916882093315e-03 -1.096613180588485760e-02 4.578739887202329037e-03 7.265016758382097581e-03 4.578739887202329037e-03 -8.836597548733874166e-03
1.482259801553084851e-02 1.817028136727134001e-03 -1.814406702894263155e-03 1.817028136727134001e-03 -1.248351757249658786e-03 5.348973320881952875e-03 -1.814406702894263155e-03 5.348973320881952875e-03 8.306219069252818860e-03
-1.030486263852490279e-02 3.728377959364615694e-03 2.948981990288195888e-03 3.728377959364615694e-03 -7.381196209251289497e-03 2.459934784238739479e-03 2.948981990288195888e-03 2.459934784238739479e-03 -1.027808032286573869e-03
-6.019080465164156762e-03 -3.274882389296190997e-03 6.390044560061028042e-03 -3.274882389296190997e-03 1.713737402202891984e-03 1.952930756434116157e-03 6.390044560061028042e-03 1.952930756434116157e-03 -1.790089159188909193e-02
7.113260705495371913e-03 -1.337056084946711436e-03 -1.592652125160756715e-03 -1.337056084946711436e-03 1.668424045948979639e-02 -1.916773694067874442e-03 -1.592652125160756715e-03 -1.916773694067874442e-03 -4.987902017949606649e-04
-1.553230753521678102e-02 -1.564671439749422324e-03 3.679619290073216174e-03 -1.564671439749422324e-03 -7.402436064806670532e-03 7.187653252766776704e-03 3.679619290073216174e-03 7.187653252766776704e-03 -1.518285168076770504e-02
8.293361560453498676e-03 2.067062992310017349e-04 -2.989027512839863027e-03 2.067062992310017349e-04 -9.641302837315750621e-03 -2.484114390592410786e-03 -2.989027512839863027e-03 -2.484114390592410786e-03 6.499789015021433490e-03
-7.590211866858868027e-03 -4.119321124973440024e-03 1.276054695504891603e-02 -4.119321124973440024e-03 -6.355809882505557805e-03 1.648345111091013187e-03 1.276054695504891603e-02 1.648345111091013187e-03 1.598608397319587274e-02
7.319598755687948058e-03 -1.512117932909485445e-03 -1.014732070667848270e-03 -1.512117932909485445e-03 -7.210634489368277292e-03 1.247609017663678680e-03 -1.014732070667848270e-03 1.247609017663678680e-03 1.119949559059250574e-02
-1.042697776457280831e-02 -1.098524330682831189e-03 2.494225635376341472e-03 -1.098524330682831189e-03 -1.362869094238626858e-02 6.884490671504374729e-03 2.494225635376341472e-03 6.884490671504374729e-03 9.481364165964990820e-03
6.493154290820619436e-03 -1.526298641643492016e-04 2.909354648847963269e-04 -1.526298641643492016e-04 6.789844427119479282e-03 1.300786675416204042e-03 2.909354648847963269e-04 1.300786675416204042e-03 1.261627447160412405e-03
-1.493342225157003045e-02 6.233058122526811268e-03 7.150572447049904044e-03 6.233058122526811268e-03 -3.724464533142687363e-03 -6.404880627253252759e-03 7.150572447049904044e-03 -6.404880627253252759e-03 -1.474937263046598689e-02
-1.582645737730141097e-02 -1.748290396723782081e-03 4.265029155517185110e-03 -1.748290396723782081e-03 -1.335483224646988884e-03 4.449940104880602786e-03 4.265029155517185110e-03 4.449940104880602786e-03 -2.488221303597242060e-03
5.859853325853748435e-03 -5.848138013224465914e-03 -1.726988126077142046e-03 -5.848138013224465914e-03 2.187180835437640448e-03 -5.550967280722912331e-03 -1.726988126077142046e-03 -5.550967280722912331e-03 2.704751738192383986e-03
-2.425911069691723959e-02 -7.583820561513963596e-03 -1.440577755308611188e-03 -7.583820561513963596e-03 -1.494679156411767495e-03 3.651289080150831555e-03 -1.440577755308611188e-03 3.651289080150831555e-03 -2.393337881865565103e-03
-1.669318454206718608e-02 8.480269792737197415e-03 4.777494503806955541e-03 8.480269792737197415e-03 -2.380012259881804371e-03 -2.162146142333722706e-03 4.777494503806955541e-03 -2.162146142333722706e-03 -1.154529392069381447e-02
5.425644018984302278e-03 9.772724053470347935e-03 -2.149825403319229587e-04 9.772724053470347935e-03 -3.686235289746652398e-03 1.166076183952265578e-03 -2.149825403319229587e-04 1.166076183952265578e-03 6.952847679451046488e-03
-8.921688042647040948e-03 5.755326772522582207e-03 -1.416978609303646761e-03 5.755326772522582207e-03 -9.612161231207000736e-03 2.004885078397968326e-03 -1.416978609303646761e-03 2.004885078397968326e-03 -4.317813598194779508e-03
-1.079235570880201535e-02 1.169034659277934330e-05 -5.749366131307363532e-04 1.169034659277934330e-05 -8.355002704580720418e-03 1.102599411991120326e-02 -5.749366131307363532e-04 1.102599411991120326e-02 4.183209212385980563e-03
-1.901478875954897702e-02 -3.120018064864775020e-03 6.057172395359421840e-03 -3.120018064864775020e-03 5.617345730276680424e-03 -3.778534726700213953e-03 6.057172395359421840e-03 -3.778534726700213953e-03 -1.082764520139975831e-02
7.004502408976857712e-03 1.484517979554829479e-03 1.015481051762954319e-03 1.484517979554829479e-03 -4.006905304107156833e-03 1.611183165755504130e-03 1.015481051762954319e-03 1.611183165755504130e-03 7.189744158323945616e-03
-5.651667788959913001e-03 -1.558206484596832281e-02 6.757369855137509247e-04 -1.558206484596832281e-02 -2.276116098972351051e-03 4.621069802094069333e-03 6.757369855137509247e-04 4.621069802094069333e-03 -1.302484365898444159e-03
-2.614677399242200037e-02 -8.415351856318887061e-03 3.897422992530038838e-03 -8.415351856318887061e-03 -5.316236605516694302e-03 -5.812717448935078362e-04 3.897422992530038838e-03 -5.812717448935078362e-04 -9.578051383834048499e-03
-2.367511141253572649e-02 -2.635602058586723165e-04 -1.343104107289692234e-03 -2.635602058586723165e-04 -8.757099446997498871e-03 -3.549658587054074430e-03 -1.343104107289692234e-03 -3.549658587054074430e-03 -7.419506592265960425e-03
-1.416652802527275726e-02 2.817167559058667611e-04 -5.117126222891892062e-03 2.817167559058667611e-04 7.724410554574484555e-03 -5.567176479922830712e-04 -5.117126222891892062e-03 -5.567176479922830712e-04 -4.430148279442426736e-03