-3.021600999999999840e+04
-3.021750879999999961e+04
-3.021724320000000080e+04
-3.021822009999999864e+04
-3.021739689999999973e+04
-3.021442780000000130e+04
-3.021701310000000012e+04
-3.021929620000000068e+04
-3.021691670000000158e+04
-3.022023249999999825e+04
-3.021507800000000134e+04
-3.022058020000000033e+04
-3.021646080000000075e+04
-3.021770500000000175e+04
-3.021493609999999899e+04
-3.021971299999999974e+04
-3.021916470000000118e+04
-3.021889400000000023e+04
-3.021356090000000040e+04
-3.021899380000000019e+04
-3.022062450000000172e+04
-3.021414960000000065e+04
-3.021977639999999883e+04
-3.021542750000000160e+04
-3.021781859999999870e+04
-3.021754569999999876e+04
-3.021876979999999821e+04
-3.021608929999999964e+04
-3.021994429999999920e+04
-3.022074469999999928e+04
-3.021808069999999861e+04
-3.021702509999999893e+04
-3.021521220000000176e+04
-3.021995560000000114e+04
-3.021993920000000071e+04
-3.021822269999999844e+04
-3.021664510000000155e+04
-3.021536160000000018e+04
-3.021344239999999991e+04
-3.021506169999999838e+04
-3.022022980000000098e+04
-3.021626580000000104e+04
-3.021488379999999961e+04
-3.021544250000000102e+04
-3.021906950000000143e+04
-3.021917260000000169e+04
-3.021823709999999846e+04
-3.021296860000000015e+04
-3.021563090000000011e+04
-3.021718389999999999e+04
-3.021428250000000116e+04
-3.021693980000000010e+04
-3.021787749999999869e+04
-3.021965669999999955e+04
-3.021599940000000061e+04
-3.021873830000000089e+04
-3.021616370000000097e+04
-3.021722620000000097e+04
-3.021863629999999830e+04
-3.021741349999999875e+04
-3.021744099999999889e+04
-3.022214389999999912e+04
-3.021712220000000161e+04
-3.021466730000000098e+04
-3.021811630000000150e+04
-3.022002079999999842e+04
-3.022128210000000036e+04
-3.021860090000000127e+04
-3.021632430000000022e+04
-3.022023199999999997e+04
-3.021732349999999860e+04
-3.021693189999999959e+04
-3.021405169999999998e+04
-3.021526589999999851e+04
-3.021605919999999969e+04
-3.021896830000000045e+04
-3.021847529999999824e+04
-3.021686569999999847e+04
-3.022051350000000093e+04
-3.021727920000000086e+04
-3.021833819999999832e+04
-3.021867799999999988e+04
-3.021754089999999997e+04
-3.021934110000000146e+04
-3.021606769999999960e+04
-3.021703419999999824e+04
-3.021801209999999992e+04
-3.021922360000000117e+04
-3.021383139999999912e+04
-3.021938230000000112e+04
-3.021742689999999857e+04
-3.021301499999999942e+04
-3.021696619999999893e+04
-3.021705099999999948e+04
-3.021556920000000173e+04
-3.021552709999999934e+04
-3.021726550000000134e+04
-3.021340169999999853e+04
-3.021866999999999825e+04
-3.021664860000000044e+04
-3.021798229999999967e+04
-3.021962329999999929e+04
-3.021512340000000040e+04
-3.021749350000000049e+04
-3.021823860000000059e+04
-3.021739970000000176e+04
-3.021851269999999931e+04
-3.022044380000000092e+04
-3.021773219999999856e+04
-3.021866440000000148e+04
-3.021658360000000175e+04
-3.021244640000000072e+04
-3.021842510000000038e+04
-3.021926870000000054e+04
-3.021915469999999914e+04
-3.021670550000000003e+04
-3.021572560000000158e+04
-3.022087540000000081e+04
-3.021502660000000105e+04
-3.021755010000000038e+04
-3.021948749999999927e+04
-3.021494900000000052e+04
-3.021753359999999884e+04
-3.021837800000000061e+04
-3.021065699999999924e+04
-3.021598540000000139e+04
-3.021143509999999878e+04
-3.021849529999999868e+04
-3.021437459999999919e+04
-3.022051750000000175e+04
-3.021810689999999886e+04
-3.021992369999999937e+04
-3.021756710000000021e+04
-3.021498380000000179e+04
-3.022088999999999942e+04
-3.021977500000000146e+04
-3.021050999999999840e+04
-3.021667900000000009e+04
-3.021816700000000128e+04
-3.021543799999999828e+04
-3.021493649999999980e+04
-3.022100849999999991e+04
-3.021279650000000038e+04
-3.021759669999999824e+04
-3.021610090000000127e+04
-3.022164210000000094e+04
-3.021392459999999846e+04
-3.021746299999999974e+04
-3.021646519999999873e+04
-3.021987299999999959e+04
-3.021776009999999951e+04
-3.021956039999999848e+04
-3.021748670000000129e+04
-3.021456250000000000e+04
-3.021990399999999863e+04
-3.021494250000000102e+04
-3.021823219999999856e+04
-3.021648819999999978e+04
-3.021985740000000078e+04
-3.021253069999999934e+04
-3.021465680000000066e+04
-3.021994009999999980e+04
-3.021652769999999873e+04
-3.021830600000000049e+04
-3.022057819999999992e+04
-3.021728229999999894e+04
-3.021561960000000181e+04
-3.021869129999999859e+04
-3.021681759999999849e+04
-3.022058650000000125e+04
-3.021796919999999955e+04
-3.022122309999999925e+04
-3.021532270000000062e+04
-3.021560269999999946e+04
-3.021704119999999966e+04
-3.021715989999999874e+04
-3.021683030000000144e+04
-3.021919619999999850e+04
-3.021958970000000045e+04
-3.021792780000000130e+04
-3.021686339999999836e+04
-3.021800080000000162e+04
-3.022177319999999963e+04
-3.022069440000000031e+04
-3.021682310000000143e+04
-3.021938769999999931e+04
-3.021893219999999928e+04
-3.021967299999999886e+04
-3.021414170000000013e+04
-3.021634240000000136e+04
-3.022048760000000038e+04
-3.021933650000000125e+04
-3.021814089999999851e+04
-3.021990049999999974e+04
-3.021514930000000095e+04
-3.021363609999999971e+04
-3.022036079999999856e+04
-3.021598890000000029e+04
-3.021979190000000017e+04
-3.021961400000000140e+04
-3.021246800000000076e+04
-3.022046710000000166e+04
-3.021722869999999966e+04
-3.021671059999999852e+04
-3.022094229999999880e+04
-3.021723150000000169e+04
-3.021849130000000150e+04
-3.021467329999999856e+04
-3.021923110000000088e+04
-3.021401009999999951e+04
-3.021699049999999988e+04
-3.021998449999999866e+04
-3.021561089999999967e+04
-3.021587810000000172e+04
-3.021786560000000100e+04
-3.021609100000000035e+04
-3.021669550000000163e+04
-3.022092689999999857e+04
-3.021687250000000131e+04
-3.021662589999999909e+04
-3.021635269999999946e+04
-3.021595260000000053e+04
-3.021331629999999859e+04
-3.021873070000000007e+04
-3.021701670000000013e+04
-3.021771020000000135e+04
-3.021882909999999902e+04
-3.021265550000000076e+04
-3.021759560000000056e+04
-3.021720729999999821e+04
-3.021876109999999971e+04
-3.021799520000000120e+04
-3.021660399999999936e+04
-3.021366240000000107e+04
-3.021622790000000168e+04
-3.021920270000000164e+04
-3.021881360000000132e+04
-3.021314990000000034e+04
-3.021441839999999866e+04
-3.021764300000000003e+04
-3.022018820000000051e+04
-3.021881799999999930e+04
-3.021498559999999998e+04
-3.021752330000000075e+04
-3.021742510000000038e+04
-3.021742750000000160e+04
-3.021558699999999953e+04
-3.021623660000000018e+04
-3.021610339999999997e+04
-3.021782489999999962e+04
-3.021563030000000072e+04
-3.021590429999999833e+04
-3.021517980000000171e+04
-3.021543649999999980e+04
-3.021569090000000142e+04
-3.021732040000000052e+04
-3.021867719999999827e+04
-3.021986560000000100e+04
-3.021949789999999848e+04
-3.021867429999999877e+04
-3.021477850000000035e+04
-3.021278459999999905e+04
-3.021769480000000112e+04
-3.021638269999999829e+04
-3.021511579999999958e+04
-3.021782340000000113e+04
-3.021869399999999951e+04
-3.021751039999999921e+04
-3.021962340000000040e+04
-3.021855159999999887e+04
-3.021692410000000018e+04
-3.021831539999999950e+04
-3.021786890000000130e+04
-3.021930689999999959e+04
-3.021961620000000039e+04
-3.021741990000000078e+04
-3.021878199999999924e+04
-3.022227230000000054e+04
-3.021640390000000116e+04
-3.022069940000000133e+04
-3.021151889999999912e+04
-3.021370880000000034e+04
-3.021934049999999843e+04
-3.021907800000000134e+04
-3.021670049999999901e+04
-3.021798430000000008e+04
-3.021902490000000034e+04
-3.021814990000000034e+04
-3.021879790000000139e+04
-3.021666570000000138e+04
-3.021931550000000061e+04
-3.021564800000000105e+04
-3.021726459999999861e+04
-3.021497290000000066e+04
-3.021646849999999904e+04
-3.022054119999999966e+04
-3.021727669999999853e+04
-3.022167970000000059e+04
-3.021607389999999941e+04
-3.021913409999999931e+04
-3.021243980000000010e+04
-3.021727769999999873e+04
-3.021767469999999958e+04
-3.021729780000000028e+04
-3.021321549999999843e+04
-3.021661309999999867e+04
-3.021376299999999901e+04
-3.021478350000000137e+04
-3.021718470000000161e+04
-3.021935389999999825e+04
-3.021784379999999874e+04
-3.021579160000000047e+04
-3.021393609999999899e+04
-3.021755719999999928e+04
-3.021323199999999997e+04
-3.021706160000000091e+04
-3.021530329999999958e+04
-3.021365780000000086e+04
-3.021904859999999826e+04
-3.021603819999999905e+04
-3.021917910000000120e+04
-3.021809440000000177e+04
-3.021667480000000069e+04
-3.021466189999999915e+04
-3.021731690000000162e+04
-3.021757099999999991e+04
-3.021503080000000045e+04
-3.021422639999999956e+04
-3.021836400000000140e+04
-3.021560510000000068e+04
-3.021909319999999934e+04
-3.021805710000000181e+04
-3.021720439999999871e+04
-3.022048660000000018e+04
-3.021970079999999871e+04
-3.021202579999999944e+04
-3.021383880000000136e+04
-3.022023779999999897e+04
-3.021958780000000115e+04
-3.021809590000000026e+04
-3.021539470000000074e+04
-3.021781959999999890e+04
-3.021775049999999828e+04
-3.021768370000000141e+04
-3.021827010000000155e+04
-3.021523050000000148e+04
-3.021914140000000043e+04
-3.022127209999999832e+04
-3.022013279999999941e+04
-3.021688070000000153e+04
-3.021680719999999928e+04
-3.021393990000000122e+04
-3.021919450000000143e+04
-3.022042339999999967e+04
-3.021728419999999824e+04
-3.021672750000000087e+04
-3.021624220000000059e+04
-3.021924009999999907e+04
-3.021785629999999946e+04
-3.021838079999999900e+04
-3.022306980000000112e+04
-3.021844110000000001e+04
-3.021546879999999874e+04
-3.021770379999999932e+04
-3.022110589999999866e+04
-3.021967980000000171e+04
-3.021691419999999925e+04
-3.021886000000000058e+04
-3.021359939999999915e+04
-3.021566449999999895e+04
-3.021624190000000090e+04
-3.021597560000000158e+04
-3.021888720000000103e+04
-3.021800990000000093e+04
-3.021771099999999933e+04
-3.021598489999999947e+04
-3.022215629999999874e+04
-3.022030870000000141e+04
-3.021999810000000070e+04
-3.021477649999999994e+04
-3.021716589999999997e+04
-3.021415629999999874e+04
-3.021900479999999880e+04
-3.021927950000000055e+04
-3.021682059999999910e+04
-3.021798510000000169e+04
-3.021931160000000091e+04
-3.021237459999999919e+04
-3.021796889999999985e+04
-3.021834809999999925e+04
-3.021980500000000029e+04
-3.021250890000000072e+04
-3.021908410000000003e+04
-3.021349090000000069e+04
-3.021677449999999953e+04
-3.021955340000000069e+04
-3.021733369999999923e+04
-3.021615610000000015e+04
-3.021833729999999923e+04
-3.021997920000000158e+04
-3.022045950000000084e+04
-3.021907300000000032e+04
-3.022012020000000120e+04
-3.021847179999999935e+04
-3.021950890000000072e+04
-3.021389960000000065e+04
-3.021596120000000155e+04
-3.021961809999999969e+04
-3.022073939999999857e+04
-3.021905210000000079e+04
-3.021967429999999877e+04
-3.021743820000000051e+04
-3.021961409999999887e+04
-3.022039930000000095e+04
-3.021743360000000030e+04
-3.021740820000000167e+04
-3.022346779999999853e+04
-3.021573349999999846e+04
-3.021815869999999995e+04
-3.021788269999999829e+04
-3.021502890000000116e+04
-3.021320560000000114e+04
-3.021385789999999906e+04
-3.021884019999999873e+04
-3.021600619999999981e+04
-3.021580319999999847e+04
-3.021896549999999843e+04
-3.021915179999999964e+04
-3.021782969999999841e+04
-3.021592740000000049e+04
-3.022004349999999977e+04
-3.021649309999999969e+04
-3.021742220000000088e+04
-3.021794239999999991e+04
-3.021957500000000073e+04
-3.021538869999999952e+04
-3.022016240000000107e+04
-3.021729339999999866e+04
-3.021476060000000143e+04
-3.021838239999999860e+04
-3.021859839999999895e+04
-3.021723740000000180e+04
-3.021688479999999981e+04
-3.021744550000000163e+04
-3.021884070000000065e+04
-3.021907129999999961e+04
-3.021937399999999980e+04
-3.021479569999999876e+04
-3.021867429999999877e+04
-3.021720019999999931e+04
-3.021960259999999835e+04
-3.021585810000000129e+04
-3.021556899999999951e+04
-3.021998630000000048e+04
-3.021867580000000089e+04
-3.021425769999999829e+04
-3.021940950000000157e+04
-3.021660570000000007e+04
-3.021914709999999832e+04
-3.021960789999999906e+04
-3.021501099999999860e+04
-3.021814600000000064e+04
-3.021677639999999883e+04
-3.021669819999999891e+04
-3.021710220000000118e+04
-3.021902409999999873e+04
-3.021500670000000173e+04
-3.021480099999999948e+04
-3.021713160000000062e+04
-3.021817320000000109e+04
-3.022057630000000063e+04
-3.021647799999999916e+04
-3.021489789999999994e+04
-3.021728110000000015e+04
-3.021659769999999844e+04
-3.021692659999999887e+04
-3.021681480000000010e+04
-3.021631910000000062e+04
-3.021836119999999937e+04
-3.021722420000000056e+04
-3.021290120000000024e+04
-3.021764389999999912e+04
-3.021921020000000135e+04
-3.021716279999999824e+04
-3.021780529999999999e+04
-3.021518579999999929e+04
-3.021830619999999908e+04
-3.021996940000000177e+04
-3.021948909999999887e+04
-3.021638940000000002e+04
-3.022147290000000066e+04
-3.021975100000000020e+04
-3.021668950000000041e+04
-3.021764649999999892e+04
-3.021825460000000021e+04
-3.021700010000000111e+04
-3.021753989999999976e+04
-3.021736850000000049e+04
-3.021744289999999819e+04
-3.021700500000000102e+04
-3.022029539999999906e+04
-3.022078589999999895e+04
-3.021928749999999854e+04
-3.021715239999999903e+04
-3.021736010000000169e+04
-3.021961620000000039e+04
-3.021604609999999957e+04
-3.021558959999999934e+04
-3.021947790000000168e+04
-3.021701919999999882e+04
-3.021671029999999882e+04
-3.021658360000000175e+04
-3.021326740000000063e+04
-3.021922529999999824e+04
-3.021545079999999871e+04
-3.021395100000000093e+04
-3.021658710000000065e+04
-3.021524250000000029e+04
-3.021596749999999884e+04
-3.021791470000000118e+04
-3.021581989999999860e+04
-3.021927790000000095e+04
-3.021983139999999912e+04
-3.021835239999999976e+04
-3.021673280000000159e+04
-3.021614909999999873e+04
-3.021955480000000171e+04
-3.021854000000000087e+04
-3.021615399999999863e+04
-3.022001080000000002e+04
-3.021456970000000001e+04
-3.021773679999999877e+04
-3.021842580000000089e+04
-3.021864939999999842e+04
-3.021656859999999870e+04
-3.021521949999999924e+04
-3.021681729999999880e+04
-3.022005589999999938e+04
-3.021726450000000114e+04
-3.021649309999999969e+04
-3.021843000000000029e+04
-3.021718720000000030e+04
-3.021561560000000100e+04
-3.021803649999999834e+04
-3.022046250000000146e+04
-3.021731149999999980e+04
-3.021634549999999945e+04
-3.021599360000000161e+04
-3.021645239999999831e+04
-3.021735900000000038e+04
-3.022092750000000160e+04
-3.021545660000000134e+04
-3.021665650000000096e+04
-3.021841400000000067e+04
-3.021555340000000069e+04
-3.021863100000000122e+04
-3.021746819999999934e+04
-3.021723619999999937e+04
-3.021729839999999967e+04
-3.021555240000000049e+04
-3.021663119999999981e+04
-3.021897269999999844e+04
-3.021546540000000095e+04
-3.021728749999999854e+04
-3.021394169999999940e+04
-3.022095579999999973e+04
-3.021578610000000117e+04
-3.021799160000000120e+04
-3.021872590000000127e+04
-3.021446480000000156e+04
-3.021808490000000165e+04
-3.021602300000000105e+04
-3.021595899999999892e+04
-3.022038060000000041e+04
-3.021694429999999920e+04
-3.021910459999999875e+04
-3.021774179999999978e+04
-3.022033529999999882e+04
-3.021703649999999834e+04
-3.021599740000000020e+04
-3.021876670000000013e+04
-3.021838959999999861e+04
-3.022002379999999903e+04
-3.021948249999999825e+04
-3.022083520000000135e+04
-3.022081710000000021e+04
-3.021716999999999825e+04
-3.021811130000000048e+04
-3.021767510000000038e+04
-3.021565149999999994e+04
-3.021859279999999853e+04
-3.021529959999999846e+04
-3.021890889999999854e+04
-3.021639649999999892e+04
-3.021707719999999972e+04
-3.021935889999999927e+04
-3.021874299999999857e+04
-3.021752049999999872e+04
-3.021876440000000002e+04
-3.021926919999999882e+04
-3.021367290000000139e+04
-3.021338360000000102e+04
-3.021874490000000151e+04
-3.022029179999999906e+04
-3.021776129999999830e+04
-3.021886969999999928e+04
-3.021921069999999963e+04
-3.021884189999999944e+04
-3.021820750000000044e+04
-3.021965250000000015e+04
-3.021747680000000037e+04
-3.021538850000000093e+04
-3.021618760000000111e+04
-3.021875489999999991e+04
-3.021444159999999829e+04
-3.021678020000000106e+04
-3.021766879999999946e+04
-3.022157549999999901e+04
-3.021817889999999898e+04
-3.021993890000000101e+04
-3.021530319999999847e+04
-3.021324409999999989e+04
-3.021609539999999834e+04
-3.021853250000000116e+04
-3.021521689999999944e+04
-3.021942620000000170e+04
-3.022259860000000117e+04
-3.021759860000000117e+04
-3.021822620000000097e+04
-3.022147350000000006e+04
-3.021844949999999881e+04
-3.021856599999999889e+04
-3.021664549999999872e+04
-3.022004400000000169e+04
-3.021846830000000045e+04
-3.022000899999999820e+04
-3.021614479999999821e+04
-3.021656799999999930e+04
-3.021675690000000031e+04
-3.021652419999999984e+04
-3.021402960000000166e+04
-3.021986059999999998e+04
-3.021980889999999999e+04
-3.021825379999999859e+04
-3.022024669999999969e+04
-3.021350619999999981e+04
-3.021829639999999927e+04
-3.021755610000000161e+04
-3.021594310000000041e+04
-3.021817269999999917e+04
-3.021960359999999855e+04
-3.022130510000000140e+04
-3.022215090000000055e+04
-3.021745360000000073e+04
-3.021912600000000020e+04
-3.021927750000000015e+04
-3.021686569999999847e+04
-3.021671199999999953e+04
-3.021728519999999844e+04
-3.021899620000000141e+04
-3.021978470000000016e+04
-3.021849109999999928e+04
-3.021536829999999827e+04
-3.021885719999999856e+04
-3.021719139999999970e+04
-3.021731580000000031e+04
-3.021822569999999905e+04
-3.021912580000000162e+04
-3.022140769999999975e+04
-3.022073400000000038e+04
-3.021949090000000069e+04
-3.022200010000000111e+04
-3.021606759999999849e+04
-3.021831090000000040e+04
-3.021760480000000098e+04
-3.021660229999999865e+04
-3.022220369999999821e+04
-3.021681190000000061e+04
-3.021622320000000036e+04
-3.021826540000000023e+04
-3.021405229999999938e+04
-3.021861990000000151e+04
-3.021743590000000040e+04
-3.021635550000000148e+04
-3.021410800000000017e+04
-3.021817659999999887e+04
-3.021755640000000130e+04
-3.021501009999999951e+04
-3.021755619999999908e+04
-3.021887050000000090e+04
-3.021873660000000018e+04
-3.021935399999999936e+04
-3.021355080000000089e+04
-3.021667499999999927e+04
-3.021447049999999945e+04
-3.021899859999999899e+04
-3.021599859999999899e+04
-3.021642599999999948e+04
-3.021886799999999857e+04
-3.021840919999999824e+04
-3.021808559999999852e+04
-3.021631520000000091e+04
-3.022119289999999819e+04
-3.021813420000000042e+04
-3.021814519999999902e+04
-3.022258269999999902e+04
-3.021453129999999874e+04
-3.021550330000000031e+04
-3.021993449999999939e+04
-3.022052669999999853e+04
-3.021805489999999918e+04
-3.021926350000000093e+04
-3.021925639999999839e+04
-3.022008109999999942e+04
-3.021338839999999982e+04
-3.022006409999999960e+04
-3.021638509999999951e+04
-3.022055189999999857e+04
-3.021654850000000079e+04
-3.021565610000000015e+04
-3.021537370000000010e+04
-3.022097539999999935e+04
-3.021560529999999926e+04
-3.021819489999999860e+04
-3.021852379999999903e+04
-3.021942540000000008e+04
-3.021981160000000091e+04
-3.022167420000000129e+04
-3.021914570000000094e+04
-3.021800649999999951e+04
-3.022052649999999994e+04
-3.021870079999999871e+04
-3.021825790000000052e+04
-3.021256139999999868e+04
-3.022134210000000166e+04
-3.022042350000000079e+04
-3.021785469999999987e+04
-3.021743100000000049e+04
-3.021906070000000182e+04
-3.021802839999999924e+04
-3.021636490000000049e+04
-3.021660589999999866e+04
-3.021991839999999866e+04
-3.021836379999999917e+04
-3.021677920000000086e+04
-3.021641400000000067e+04
-3.021566200000000026e+04
-3.022254750000000058e+04
-3.022127730000000156e+04
-3.021514679999999862e+04
-3.021600000000000000e+04
-3.021665680000000066e+04
-3.021461650000000009e+04
-3.021963799999999901e+04
-3.022243049999999857e+04
-3.021950230000000010e+04
-3.021449230000000171e+04
-3.021694259999999849e+04
-3.021709340000000157e+04
-3.021724499999999898e+04
-3.021692640000000029e+04
-3.021824460000000181e+04
-3.021699009999999907e+04
-3.022272360000000117e+04
-3.021764809999999852e+04
-3.021412759999999980e+04
-3.021694979999999850e+04
-3.021792620000000170e+04
-3.021792220000000088e+04
-3.021589489999999932e+04
-3.021869540000000052e+04
-3.021763339999999880e+04
-3.021620200000000114e+04
-3.021961500000000160e+04
-3.021773600000000079e+04
-3.021275549999999930e+04
-3.021827669999999853e+04
-3.022054880000000048e+04
-3.021896849999999904e+04
-3.021271519999999873e+04
-3.021652230000000054e+04
-3.021648459999999977e+04
-3.021547829999999885e+04
-3.021803659999999945e+04
-3.021827030000000013e+04
-3.021455879999999888e+04
-3.021818149999999878e+04
-3.021817910000000120e+04
-3.021580649999999878e+04
-3.021979190000000017e+04
-3.021700749999999971e+04
-3.021573070000000007e+04
-3.021924139999999898e+04
-3.021545660000000134e+04
-3.021899409999999989e+04
-3.021581350000000020e+04
-3.021923559999999998e+04
-3.021584240000000136e+04
-3.021335069999999905e+04
-3.021701680000000124e+04
-3.021285220000000118e+04
-3.021691920000000027e+04
-3.021774669999999969e+04
-3.021370650000000023e+04
-3.021960169999999925e+04
-3.021835280000000057e+04
-3.021443400000000111e+04
-3.021728779999999824e+04
-3.021705020000000150e+04
-3.021677179999999862e+04
-3.021821670000000086e+04
-3.021939809999999852e+04
-3.022040460000000166e+04
-3.022094350000000122e+04
-3.022123979999999938e+04
-3.022026329999999871e+04
-3.021734679999999935e+04
-3.021751959999999963e+04
-3.021751659999999902e+04
-3.021932050000000163e+04
-3.021835069999999905e+04
-3.021783320000000094e+04
-3.021863829999999871e+04
-3.021757679999999891e+04
-3.021833269999999902e+04
-3.021424120000000039e+04
-3.021623900000000140e+04
-3.021827070000000094e+04
-3.021579639999999927e+04
-3.021916509999999835e+04
-3.021339689999999973e+04
-3.021946900000000096e+04
-3.021690190000000075e+04
-3.021614730000000054e+04
-3.021838799999999901e+04
-3.021892199999999866e+04
-3.021552999999999884e+04
-3.021618669999999838e+04
-3.021852509999999893e+04
-3.021607410000000164e+04
-3.021850479999999880e+04
-3.021923549999999886e+04
-3.021257770000000164e+04
-3.021667889999999898e+04
-3.021784690000000046e+04
-3.021699610000000030e+04
-3.021837199999999939e+04
-3.021520190000000002e+04
-3.021913859999999841e+04
-3.021526160000000164e+04
-3.021556980000000112e+04
-3.021996489999999903e+04
-3.021594199999999910e+04
-3.021883810000000085e+04
-3.021674269999999888e+04
-3.021748089999999866e+04
-3.021597209999999905e+04
-3.022082319999999891e+04
-3.021631799999999930e+04
-3.021749810000000070e+04
-3.022240130000000136e+04
-3.021821870000000126e+04
-3.021914400000000023e+04
-3.021515369999999893e+04
-3.022021860000000015e+04
-3.021832359999999971e+04
-3.021454070000000138e+04
-3.021596470000000045e+04
-3.021451080000000002e+04
-3.021592220000000088e+04
-3.021363810000000012e+04
-3.021515139999999883e+04
-3.021782839999999851e+04
-3.021382059999999910e+04
-3.022180029999999897e+04
-3.021634470000000147e+04
-3.022267910000000120e+04
-3.021567510000000038e+04
-3.021945070000000123e+04
-3.021655080000000089e+04
-3.021979920000000129e+04
-3.021610009999999966e+04
-3.021707070000000022e+04
-3.022021719999999914e+04
-3.021959230000000025e+04
-3.021474910000000091e+04
-3.021477760000000126e+04
-3.021782530000000042e+04
-3.022129119999999966e+04
-3.022102449999999953e+04
-3.021980319999999847e+04
-3.022133109999999942e+04
-3.021935210000000006e+04
-3.021772460000000137e+04
-3.021906810000000041e+04
-3.021871770000000106e+04
-3.021636750000000029e+04
-3.022050270000000091e+04
-3.021889229999999952e+04
-3.021505679999999847e+04
-3.021867829999999958e+04
-3.022223349999999846e+04
-3.021717180000000008e+04
-3.021361720000000059e+04
-3.022096940000000177e+04
-3.021544129999999859e+04
-3.021602309999999852e+04
-3.021654000000000087e+04
-3.021659700000000157e+04
-3.022057330000000002e+04
-3.021202579999999944e+04
-3.021570200000000114e+04
-3.021560389999999825e+04
-3.021486390000000029e+04
-3.021341330000000016e+04
-3.021916630000000077e+04
-3.021725400000000081e+04
-3.021752360000000044e+04
-3.021843059999999969e+04
-3.021659560000000056e+04
-3.022036339999999836e+04
-3.021787889999999970e+04
-3.021697109999999884e+04
-3.021570569999999861e+04
-3.021627999999999884e+04
-3.021482540000000154e+04
-3.021764210000000094e+04
-3.021906780000000072e+04
-3.021783689999999842e+04
-3.021425939999999900e+04
-3.021866110000000117e+04
-3.021867540000000008e+04
-3.021884709999999905e+04
-3.021518049999999857e+04
-3.021480429999999978e+04
-3.021864259999999922e+04
-3.021974970000000030e+04
-3.021437909999999829e+04
-3.021366649999999936e+04
-3.021999220000000059e+04
-3.021735429999999906e+04
-3.021903009999999995e+04
-3.021627880000000005e+04
-3.021831769999999960e+04
-3.021635250000000087e+04
-3.021359089999999924e+04
-3.022011469999999827e+04
-3.021446759999999995e+04
-3.021790420000000086e+04
-3.021687989999999991e+04
-3.021612229999999909e+04
-3.021858599999999933e+04
-3.021882630000000063e+04
-3.021830210000000079e+04
-3.021775879999999961e+04
-3.021715729999999894e+04
-3.021993079999999827e+04
-3.021453729999999996e+04
-3.021311390000000029e+04
-3.021692750000000160e+04
-3.021986040000000139e+04
-3.021640980000000127e+04
-3.021625539999999819e+04
-3.021703199999999924e+04
-3.022114549999999872e+04
-3.021924720000000161e+04
-3.022025600000000122e+04
-3.021447769999999946e+04
-3.021544800000000032e+04
-3.022158729999999923e+04
-3.021843649999999980e+04
-3.021717589999999836e+04
-3.021644970000000103e+04
-3.021893860000000132e+04
-3.021967919999999867e+04
-3.021978940000000148e+04
-3.021741479999999865e+04
-3.021883469999999943e+04
-3.021770709999999963e+04
-3.021311300000000119e+04
-3.021924230000000171e+04
-3.021442009999999937e+04
-3.021810440000000017e+04
-3.022065469999999914e+04
-3.021724030000000130e+04
-3.021634839999999895e+04
-3.021969610000000102e+04
-3.021935870000000068e+04
-3.022060529999999926e+04
-3.021536140000000159e+04
-3.022047580000000016e+04
-3.021325779999999941e+04
-3.021850119999999879e+04
-3.021557089999999880e+04
-3.021776030000000173e+04
-3.021898410000000149e+04
-3.021756669999999940e+04
-3.021651640000000043e+04
-3.021471389999999883e+04
-3.021415230000000156e+04
-3.022041639999999825e+04
-3.021750999999999840e+04
-3.022037310000000070e+04
-3.021628740000000107e+04
-3.021854239999999845e+04
-3.021741679999999906e+04
-3.022105789999999979e+04
-3.021641770000000179e+04
-3.021606490000000122e+04
-3.021808770000000004e+04
-3.021795209999999861e+04
-3.021556480000000010e+04
-3.022145790000000125e+04
-3.021692889999999898e+04
-3.021643300000000090e+04
-3.021755809999999838e+04
-3.021517410000000018e+04
-3.021700869999999850e+04
-3.021457449999999881e+04
-3.021818000000000029e+04
-3.021824169999999867e+04
-3.021706220000000030e+04
-3.021749799999999959e+04
-3.021690729999999894e+04
-3.021801559999999881e+04
-3.021550389999999970e+04
-3.021556090000000040e+04
-3.021807319999999891e+04
-3.021985429999999906e+04
-3.022069350000000122e+04
-3.021870910000000003e+04
-3.022114919999999984e+04
-3.021537489999999889e+04
-3.021631109999999899e+04
-3.021777370000000155e+04
-3.021832300000000032e+04
-3.021914370000000054e+04
-3.021646919999999955e+04
-3.021899039999999877e+04
-3.021848199999999997e+04
-3.021729079999999885e+04
-3.021400460000000021e+04
-3.022038149999999951e+04
-3.021740889999999854e+04
-3.021927709999999934e+04
-3.021473140000000058e+04
-3.021640940000000046e+04
-3.021829040000000168e+04
-3.021971830000000045e+04
-3.021718179999999847e+04
-3.021706729999999880e+04
-3.021760520000000179e+04
-3.021948909999999887e+04
-3.021522090000000026e+04
-3.021576489999999831e+04
-3.021829859999999826e+04
-3.021195920000000115e+04
-3.021619099999999889e+04
-3.021943990000000122e+04
-3.021791849999999977e+04
-3.021968149999999878e+04
-3.021938799999999901e+04
-3.021589970000000176e+04
-3.021712229999999909e+04
-3.021828989999999976e+04
-3.021554179999999906e+04
-3.022016070000000036e+04
-3.021709080000000176e+04
-3.021844780000000173e+04
-3.021706149999999980e+04
-3.021888390000000072e+04
-3.021674629999999888e+04
-3.021870319999999992e+04
-3.021565859999999884e+04
-3.021756490000000122e+04
-3.021551120000000083e+04
-3.021435970000000088e+04
-3.021619970000000103e+04
-3.021905059999999867e+04
-3.021860889999999927e+04
-3.021768159999999989e+04
-3.022111939999999959e+04
-3.021690020000000004e+04
-3.022001599999999962e+04
-3.022121099999999933e+04
-3.021731769999999960e+04
-3.022107619999999952e+04
-3.021593869999999879e+04
-3.021658229999999821e+04
-3.021885410000000047e+04
-3.022016270000000077e+04
-3.021384479999999894e+04
-3.021773359999999957e+04
-3.021793630000000121e+04
-3.021779490000000078e+04
-3.021640850000000137e+04
-3.021874620000000141e+04
-3.021583770000000004e+04
-3.021561609999999928e+04
-3.021890759999999864e+04
-3.021937840000000142e+04
-3.021432979999999952e+04
-3.021612670000000071e+04
-3.021290000000000146e+04
-3.021763560000000143e+04
-3.021637099999999919e+04
-3.021605289999999877e+04
-3.021635499999999956e+04
-3.022016869999999835e+04
-3.021566040000000066e+04
-3.021699880000000121e+04
-3.021964479999999821e+04
-3.021790820000000167e+04
-3.021740149999999994e+04
-3.021748570000000109e+04
-3.021844680000000153e+04
-3.021898159999999916e+04
-3.021509360000000015e+04
-3.021617290000000139e+04
-3.021505700000000070e+04
-3.021793490000000020e+04
-3.021667650000000140e+04
-3.022026659999999902e+04
-3.021764280000000144e+04
-3.021787740000000122e+04
-3.021853840000000127e+04
-3.021535259999999835e+04
-3.021432809999999881e+04
-3.021580749999999898e+04
-3.021408280000000013e+04
-3.021571819999999934e+04
-3.021649970000000030e+04
-3.021798319999999876e+04
-3.021531970000000001e+04
-3.021378410000000076e+04
-3.021641879999999946e+04
-3.021501060000000143e+04
-3.021611170000000129e+04
-3.021739830000000075e+04
-3.021782509999999820e+04
-3.021735849999999846e+04
-3.021815090000000055e+04
-3.021845430000000124e+04
-3.021713149999999951e+04
-3.021222060000000056e+04
-3.021802730000000156e+04
-3.021661349999999948e+04
-3.021350249999999869e+04
-3.021762440000000061e+04
-3.021871319999999832e+04
-3.022042239999999947e+04
-3.021598140000000058e+04
-3.022089579999999842e+04