-4.987384668160004964e+01 6.885140303872007372e+00 8.774928871424007681e+00 6.885140303872007372e+00 -5.334430157209605738e+01 -1.813304713216001618e+00 8.773335457792008185e+00 -1.813304713216001618e+00 -3.237338476134403464e+01
-4.603371982848004507e+01 9.377239224320009114e+00 -4.899746918400005313e+00 9.377239224320009114e+00 -4.844455465369604497e+01 -1.306599178240001324e-01 -4.899746918400005313e+00 -1.306599178240001324e-01 -4.889071047065604603e+01
-3.724285682073603709e+01 -9.520646451200009963e+00 -4.942769086464005035e+00 -9.520646451200009963e+00 -5.558304772505605484e+01 7.033327771648007598e+00 -4.942769086464005035e+00 7.033327771648007598e+00 -4.251705594265604304e+01
-4.685114102169604422e+01 -1.902535876608001786e+01 7.535253065728007016e+00 -1.902535876608001786e+01 -3.557773957529603592e+01 -3.588367499264003779e+00 7.535253065728007016e+00 -3.588367499264003779e+00 -3.224591167078403231e+01
-1.315840977305601278e+01 -6.311511396352006642e+00 -1.091328996556801023e+01 -6.311511396352006642e+00 -3.789137616896003635e+01 2.882485260288003115e+00 -1.091328996556801023e+01 2.882485260288003115e+00 -3.556817909350403539e+01
-3.289443101900803157e+01 3.487982440448003540e+00 -5.492496789504005328e+00 3.487982440448003540e+00 -5.121231413248005282e+01 -3.819412475904003568e+00 -5.492496789504005328e+00 -3.819412475904003568e+00 -5.124258899148804858e+01
-2.859062079897602970e+01 4.843977441280005181e+00 -1.001301126348800885e+01 4.843977441280005181e+00 -4.882060027084804688e+01 1.944442655129601860e+01 -1.001301126348800885e+01 1.944442655129601860e+01 -4.742158310195204507e+01
-5.197555926220805844e+01 -3.545345331200003614e+00 4.448810860544004875e+00 -3.545345331200003614e+00 -2.062833287987201913e+01 1.080493783859201073e+01 4.448810860544004875e+00 1.080653125222401023e+01 -2.670083223142402673e+01
-3.577054262476803359e+01 3.435399790592003288e+00 3.374850072576003335e+00 3.435399790592003288e+00 -5.159473340416005271e+01 1.546089247129601496e+01 3.374850072576003335e+00 1.546089247129601496e+01 -3.770654018764803794e+01
1.766299011072001690e+01 -1.577479495680001453e-01 -1.018350652211201002e+01 -1.577479495680001453e-01 -1.534935351705601470e+01 -9.018721157120008769e-01 -1.018350652211201002e+01 -9.018721157120008769e-01 -6.184038305792006085e+00
-4.584888384716804666e+01 -4.630460014592005180e+00 -8.147123900416008979e+00 -4.628866600960004796e+00 -4.946433937817604942e+01 4.711724109824004358e+00 -8.147123900416008979e+00 4.711724109824004358e+00 -1.209082263961601278e+01
-4.739449507020804475e+01 9.214711033856008982e+00 1.352967514931201443e+01 9.214711033856008982e+00 -3.511405620838403507e+01 5.629530361856005527e+00 1.352967514931201443e+01 5.629530361856005527e+00 -5.331721354035204996e+01
-4.880944637542404507e+01 -4.297436565504004768e+00 3.277651841024002977e+00 -4.297436565504004768e+00 -4.379019343462404379e+01 1.326835531366401177e+01 3.277651841024002977e+00 1.326835531366401177e+01 -3.229212066611203369e+01
-3.954055927808003901e+01 -8.512015622144009086e+00 9.128666697728009538e+00 -8.512015622144009086e+00 -3.075925675212803512e+01 -5.983268188160006495e+00 9.128666697728009538e+00 -5.984861601792005992e+00 -3.981621983641603890e+01
-7.275526643712007058e+01 6.564864163840006261e-01 -4.044083798016004039e+00 6.564864163840006261e-01 -4.845570854912004677e+01 -7.908111855616008157e+00 -4.044083798016004039e+00 -7.908111855616008157e+00 -6.199494418022405995e+01
-3.913583221555203551e+01 -7.377505116160006926e-01 2.058690412544001980e+00 -7.377505116160006926e-01 -5.671596481740805729e+01 1.784623267840001748e-01 2.058690412544001980e+00 1.784623267840001748e-01 -1.190279983104001182e+01
-6.332863139020806642e+01 1.988898895462401839e+01 -1.111565349683201198e+01 1.988898895462401839e+01 -3.829132299059203604e+01 1.773788055142401632e+01 -1.111565349683201198e+01 1.773947396505601759e+01 -5.673349236736004997e+01
-3.738148380672004123e+01 -1.445226164224001408e+00 4.834416959488004650e+00 -1.445226164224001408e+00 -5.383985321164805526e+01 4.287876083712004238e+00 4.834416959488004650e+00 4.287876083712004238e+00 -3.767148508774403837e+01
-7.242542981529607005e+01 9.289601474560010175e+00 -2.026503457177602030e+01 9.289601474560010175e+00 -5.932916317388806249e+01 -5.372990767104005805e+00 -2.026503457177602030e+01 -5.372990767104005805e+00 -5.519266138521605569e+01
-4.864054453043205228e+01 -1.251785749299201278e+01 1.831469628620801871e+01 -1.251945090662401228e+01 -3.174398637670402934e+01 -6.019916701696006456e+00 1.831469628620801871e+01 -6.019916701696006456e+00 -4.138413885030404060e+01
-4.870428107571204634e+01 3.951665807360003946e+00 -1.897436952985601977e+01 3.951665807360003946e+00 -1.771238593331201727e+01 -5.075022417920004969e+00 -1.897436952985601977e+01 -5.075022417920004969e+00 -1.736502176153601695e+01
-6.536501401190406568e+01 1.188527228108801204e+01 -9.520646451200009963e+00 1.188527228108801204e+01 -5.162819509043205102e+01 9.243392479232008796e+00 -9.520646451200009963e+00 9.243392479232008796e+00 -5.867267675750405687e+01
-2.969963668684802727e+01 -5.945026260992006151e+00 -1.266126471987201185e+01 -5.945026260992006151e+00 -1.894250125721601918e+01 -3.975567011840003495e+00 -1.266126471987201185e+01 -3.973973598208003999e+00 -3.296454121881603783e+01
-6.961942840934406718e+01 -4.622492946432004146e+00 -2.627539079168002889e+00 -4.622492946432004146e+00 -5.973070340915205634e+01 1.257362697011201291e+01 -2.627539079168002889e+00 1.257362697011201291e+01 -5.122346802790405462e+01
-5.772140881920005739e+01 3.604301635584003627e+00 -1.235214247526401188e+01 3.604301635584003627e+00 -2.138361094144002195e+01 1.370335723520001325e+00 -1.235214247526401188e+01 1.370335723520001325e+00 -4.365475327590404220e+01
-4.857043433062404603e+01 3.306333286400003235e+00 -1.290824383283201371e+01 3.306333286400003235e+00 -5.622838024601605866e+01 9.522239864832009459e+00 -1.290983724646401321e+01 9.522239864832009459e+00 -2.804089309593602763e+01
-4.716982374809605005e+01 -6.105961037824005899e+00 8.671356985344008450e+00 -6.105961037824005899e+00 -5.916822839705606185e+01 8.169431691264007256e+00 8.671356985344008450e+00 8.171025104896008528e+00 -4.380294074368004686e+01
-3.802203608678404123e+01 1.283335339212801429e+01 1.174983212236801222e+01 1.283175997849601124e+01 -3.694010823065603688e+01 9.361305088000008823e+00 1.174983212236801222e+01 9.361305088000008823e+00 -4.894329312051205250e+01
-3.337086169497603549e+01 -1.598353214259201671e+01 3.282432081920003131e-01 -1.598353214259201671e+01 -2.052794782105602067e+01 -3.352542281728003282e+00 3.282432081920003131e-01 -3.352542281728003282e+00 -4.315442139545604050e+01
-4.395431503872003987e+01 7.422120697856007254e+00 -1.923409595187202115e+01 7.422120697856007254e+00 -1.966591104614402141e+01 -5.256671571968005274e+00 -1.923409595187202115e+01 -5.256671571968005274e+00 -4.322134476800004421e+01
-3.730659336601603826e+01 6.193598787584005727e+00 -9.673614159872009566e+00 6.193598787584005727e+00 -1.995750574080001982e+01 -3.170893127680003420e-01 -9.673614159872009566e+00 -3.170893127680003420e-01 -4.671410744934404846e+01
-6.165236024934405634e+01 8.585312649216009007e+00 1.616358788300801663e+01 8.585312649216009007e+00 -2.533687016243202450e+01 7.469923106816008129e+00 1.616199446937601536e+01 7.469923106816008129e+00 -5.088407092428804646e+01
-6.329038946304006430e+01 1.179922794496001259e+01 3.408311758848002970e+00 1.179922794496001259e+01 -8.413383318323208471e+01 -1.420368911564801451e+01 3.408311758848002970e+00 -1.420368911564801451e+01 -5.932597634662405994e+01
-2.677731608576002742e+01 -1.523303432192001594e+00 -1.180878842675201135e+01 -1.523303432192001594e+00 -4.214101032550404113e+01 -4.842384027648004796e+00 -1.180878842675201135e+01 -4.842384027648004796e+00 -1.785260633292801913e+01
-3.676483273113603900e+01 9.281634406400009141e+00 8.650642608128007893e+00 9.281634406400009141e+00 -3.211843858022403708e+01 -1.257044014284801214e+01 8.650642608128007893e+00 -1.257044014284801214e+01 -4.920779978342405059e+01
-2.828149855436803151e+01 3.556499226624003640e+00 3.441773445120003272e-01 3.556499226624003640e+00 -3.247536323379203083e+01 4.832823545856005154e+00 3.441773445120003272e-01 4.832823545856005154e+00 -7.691407601664007387e+00
-5.827751017676806100e+01 -2.882485260288003115e+00 1.650298498662401769e+01 -2.882485260288003115e+00 -8.088804961484807166e+01 -3.656884285440003879e+00 1.650457840025601541e+01 -3.656884285440003879e+00 -4.673322841292804952e+01
-5.574876274278405219e+01 -2.627539079168002889e+00 2.790067269632002578e+00 -2.627539079168002889e+00 -1.298950792806401289e+01 1.403797409792001405e+00 2.790067269632002578e+00 1.403797409792001405e+00 -4.371689640755204209e+01
-4.717141716172804422e+01 3.424245895168003262e+00 9.703889018880008654e-01 3.424245895168003262e+00 -6.824909268582406696e+01 -1.760084697907201701e+01 9.703889018880008654e-01 -1.759925356544001573e+01 -4.274172726476804485e+01
-5.139874352742405250e+01 7.640418365440007520e+00 -1.287796897382401440e+01 7.640418365440007520e+00 -4.553816818892804719e+01 -3.824192716800003389e+00 -1.287796897382401440e+01 -3.824192716800003389e+00 -1.464028445081601504e+01
-3.623900623257603826e+01 -1.770282545152001674e+01 -2.469791129600002466e-01 -1.770282545152001674e+01 -3.606213731942403200e+01 1.343247691776001451e+00 -2.469791129600002466e-01 1.343247691776001451e+00 -2.972831813222402886e+01
-9.818614800384009911e+00 8.352674258944007946e+00 1.840392744960001936e+00 8.352674258944007946e+00 -2.916424970649602955e+01 7.146460139520007360e+00 1.840392744960001936e+00 7.146460139520007360e+00 -1.477094436864001636e+01
-3.608444511027203561e+01 -5.102110449664005287e+00 8.292124540928009324e+00 -5.102110449664005287e+00 -3.109228020121603109e+01 -1.803106865971201600e+01 8.292124540928009324e+00 -1.803106865971201600e+01 -3.769538629222403614e+01
-4.453750442803204379e+01 -3.551718985728003819e+00 1.209400946688001133e+00 -3.551718985728003819e+00 -2.635506147328002413e+01 -1.704952586240001677e-01 1.209400946688001133e+00 -1.704952586240001677e-01 -5.006983655833604985e+01
-4.584251019264004867e+01 -1.027751792640001050e+00 3.393971036160003396e-01 -1.029345206272000990e+00 -3.282272740556803114e+01 -1.458451497369601491e+01 3.393971036160003396e-01 -1.458451497369601491e+01 -3.533554070323203433e+01
-1.643924844134401653e+01 2.188234940825602237e+01 1.226928496640001254e-01 2.188234940825602237e+01 -3.593307081523203550e+01 1.181834890854401188e+01 1.226928496640001254e-01 1.181675549491201238e+01 -2.446686631936002598e+01
-2.392988592537602344e+01 -1.473588926873601324e+01 -1.728853790720001671e+00 -1.473588926873601324e+01 -3.526224367616003263e+01 1.309945346867201188e+01 -1.727260377088001508e+00 1.309945346867201188e+01 -6.195032859852805984e+01
-6.114724812800005793e+01 -1.183109621760001140e+01 -8.355861086208008714e+00 -1.183109621760001140e+01 -4.358942331699203976e+01 2.182657993113602046e+01 -8.355861086208008714e+00 2.182657993113602046e+01 -9.399547015168009167e+00
-3.660549136793603964e+01 -8.410037149696007575e+00 2.780506787840002936e+00 -8.410037149696007575e+00 -3.964731799142403901e+01 -1.186774473113601225e+01 2.780506787840002936e+00 -1.186774473113601225e+01 -6.035532155289606493e+01
-6.114884154163205920e+01 1.077466297958400965e+01 1.292258455552001362e+00 1.077466297958400965e+01 -2.346301573120002359e+01 1.345478470860801323e+01 1.292258455552001362e+00 1.345478470860801323e+01 -4.179205274009604665e+01
-6.443127362355205889e+01 6.193598787584005727e+00 8.317619159040008370e+00 6.193598787584005727e+00 -5.171583284019204996e+01 -7.156020621312007890e+00 8.317619159040008370e+00 -7.156020621312007890e+00 -1.932970076979201934e+01
-3.043101354393603231e+01 -1.974717514137601881e+01 1.302615644160001374e+01 -1.974717514137601881e+01 -2.461664720076802482e+01 4.426503069696004822e+00 1.302615644160001374e+01 4.426503069696004822e+00 -5.232133002035205038e+01
-5.111033566003204953e+01 5.301287153664005380e+00 1.780321051033601876e+01 5.301287153664005380e+00 -1.947310799667201664e+01 -7.527285997568007758e+00 1.780321051033601876e+01 -7.527285997568007758e+00 -3.522718857625603306e+01
-5.337935667200005696e+01 -3.451333926912003580e+00 -1.994953867264002145e+00 -3.451333926912003580e+00 -3.391580915712003019e+01 1.037312274432001047e+01 -1.994953867264002145e+00 1.037312274432001047e+01 -4.347629094912004177e+01
-3.988154979532804134e+01 2.887265501184002936e+00 1.077466297958400965e+01 2.887265501184002936e+00 -4.905164524748804666e+01 6.112334692352006549e+00 1.077466297958400965e+01 6.112334692352006549e+00 -7.960216481382408915e+01
-3.071623458406402918e+01 7.269152989184007652e+00 -8.827511521280008822e+00 7.269152989184007652e+00 -6.173362434457606440e+01 7.618110574592007467e+00 -8.829104934912008318e+00 7.618110574592007467e+00 -3.196865769881603470e+01
-3.918522803814403943e+01 -1.441083288780801475e+01 4.749966036992004703e+00 -1.441242630144001247e+01 -6.106279720550406154e+01 -9.146194247680008438e-01 4.749966036992004703e+00 -9.146194247680008438e-01 -3.287212322816002796e+01
-5.324072968601605282e+01 -8.491301244928008529e+00 4.061611347968003827e+00 -8.491301244928008529e+00 -5.500145174937605219e+01 -4.029743075328004132e+00 4.061611347968003827e+00 -4.029743075328004132e+00 -7.065833409740807269e+01
-4.440365768294404347e+01 2.911166705664002929e+00 1.261983596544001163e+00 2.911166705664002929e+00 -8.125612816384007431e+01 -4.263974879232004689e+00 1.261983596544001163e+00 -4.263974879232004689e+00 -5.842888447180806111e+01
-5.740591292006406121e+01 -1.315044270489601352e+01 -1.413835915673601562e+01 -1.315044270489601352e+01 -4.976071431372805165e+01 -8.484927590400008768e+00 -1.413835915673601562e+01 -8.484927590400008768e+00 -5.686574569881605612e+01
-4.763350711500805090e+01 -1.099455406080001119e+01 1.837205917696001833e+00 -1.099455406080001119e+01 -8.767599168716809288e+01 -1.043685928960001119e+00 1.837205917696001833e+00 -1.043685928960001119e+00 -3.548054134374403645e+01
-2.585313617920002471e+01 9.710262673408008638e+00 -7.463549452288007480e+00 9.710262673408008638e+00 -2.666418371788802588e+01 2.849023574016003035e+00 -7.463549452288007480e+00 2.849023574016003035e+00 -3.547576110284803264e+01
-4.409134861107204273e+01 -6.091620315136005992e+00 -2.429955788800002736e+00 -6.091620315136005992e+00 -4.230035168870404760e+01 1.470880123699201469e+01 -2.429955788800002736e+00 1.470880123699201469e+01 -3.938281132851203381e+01
-3.450696561459204048e+01 1.226928496640001254e-01 1.004965977702400970e+01 1.226928496640001254e-01 -3.059035490713603167e+01 -2.146168820940802036e+01 1.004806636339201020e+01 -2.146168820940802036e+01 -4.307793754112004336e+01
-5.365661064396805813e+01 1.461160300544001478e+00 5.070242177024004704e+00 1.461160300544001478e+00 -3.839648829030404187e+01 8.073826873344009059e+00 5.068648763392005208e+00 8.073826873344009059e+00 -3.975567011840004028e+01
-2.692709696716802981e+01 1.152356738662401092e+01 6.034257424384006363e+00 1.152356738662401092e+01 -3.503757235404803794e+01 4.960296636416004823e+00 6.034257424384006363e+00 4.960296636416004823e+00 -6.556419071590407555e+01
-1.917673306112002152e+01 3.475235131392004018e+00 6.835744481280007223e-01 3.473641717760003633e+00 -1.669419462246401764e+01 1.092603727462401153e+01 6.835744481280007223e-01 1.092603727462401153e+01 -5.041082707558404508e+01
-3.189695408537603427e+01 -1.069180547072001053e+00 -8.978885816320008928e+00 -1.069180547072001053e+00 -2.898419396608003140e+01 -2.907979878400003049e+00 -8.978885816320008928e+00 -2.907979878400003049e+00 -6.691540547584006049e+01
-5.076137807462405505e+01 -9.895098654720010600e+00 1.706386658508801801e+01 -9.895098654720010600e+00 -4.182392101273604368e+01 2.096294974259201993e+01 1.706386658508801801e+01 2.096294974259201993e+01 -4.089974110617603742e+01
-3.097118076518403029e+01 2.146328162304002252e+00 2.499906647244802826e+01 2.146328162304002252e+00 -4.589509284249604093e+01 -4.095073034240004350e-01 2.499906647244802826e+01 -4.095073034240004350e-01 -3.655131530444803900e+01
-5.578381784268805177e+01 -5.067055349760004823e+00 -6.204752683008005754e+00 -5.067055349760004823e+00 -4.769246341939204825e+01 2.310449766400002325e+00 -6.204752683008005754e+00 2.310449766400002325e+00 -3.269844114227203136e+01
-6.045570661171206694e+01 2.219625189376002083e+01 -8.231574822912007150e+00 2.219625189376002083e+01 -3.468383452774403963e+01 2.297702457344002358e+00 -8.231574822912007150e+00 2.297702457344002358e+00 -4.632212769587204804e+01
-2.973150495948802785e+01 7.361570979840007745e+00 -2.476005442764802567e+01 7.361570979840007745e+00 -5.175407476736005208e+01 6.311511396352006642e+00 -2.476005442764802567e+01 6.311511396352006642e+00 -4.082485066547204156e+01
-6.627804002304006303e+01 8.599653371904008026e+00 3.537378263040003579e-01 8.599653371904008026e+00 -3.464559260057603041e+01 -8.335146708992008158e+00 3.537378263040003579e-01 -8.336740122624007654e+00 -6.374451234816006462e+01
-4.151479876812804548e+01 7.998936432640006977e-01 5.992828669952006138e+00 8.014870568960007491e-01 -5.549700338892805718e+01 2.106492821504001967e+00 5.992828669952006138e+00 2.106492821504001967e+00 -4.735465972940804846e+01
-2.342477380403202503e+01 -1.472632878694401448e+01 -9.227458342912010281e+00 -1.472632878694401448e+01 -1.461000959180801395e+01 1.413357891584001491e+00 -9.227458342912010281e+00 1.413357891584001491e+00 -5.105934642380805855e+01
-2.988606608179202695e+01 -7.540033306624007281e+00 -1.234258199347201312e+01 -7.540033306624007281e+00 -1.273456174694401355e+01 5.959366983680005614e-01 -1.234417540710401262e+01 5.959366983680005614e-01 -3.006612182220803220e+01
-2.354587324006402227e+01 -3.951665807360004168e-01 -2.863364296704002943e+00 -3.951665807360004168e-01 -3.438586617856002903e+01 -3.182047023104003447e+00 -2.863364296704002943e+00 -3.182047023104003447e+00 -3.309042089574403178e+01
-4.027990320332803975e+01 -5.779311243264006137e+00 3.970786770944003674e+00 -5.779311243264006137e+00 -3.592510374707203624e+01 -7.272339816448007532e+00 3.970786770944003674e+00 -7.272339816448007532e+00 -1.654122691379201626e+01
-5.938333923737606312e+01 2.237949446144002152e+01 -2.390120448000002118e-01 2.237949446144002152e+01 -6.313104809984006494e+01 -6.566457577472005980e+00 -2.390120448000002118e-01 -6.566457577472005980e+00 -4.968423045939204741e+01
-2.999282479513603050e+01 -6.039037665280005962e-01 -6.383215009792006178e+00 -6.039037665280005962e-01 -2.488752751820802445e+01 -4.765900173312004995e+00 -6.383215009792006178e+00 -4.765900173312004995e+00 -2.803133261414402710e+01
-3.534669459865603613e+01 -8.652236021760009166e+00 1.019625383116801132e+01 -8.652236021760009166e+00 -5.427166830592005553e+00 -6.394368905216006205e+00 1.019625383116801132e+01 -6.394368905216006205e+00 -4.381250122547204029e+01
-5.890850197504006047e+01 -1.700172345344001812e+01 -1.087823486566401066e+01 -1.700172345344001812e+01 -3.571477314764803879e+01 4.016995766272003721e+00 -1.087823486566401066e+01 4.016995766272003721e+00 -5.339210398105606004e+01
-2.182339310387202147e+01 -7.026954117120006948e+00 -6.510688100352006735e+00 -7.026954117120006948e+00 -4.818960847257604740e+01 -4.262381465600004304e+00 -6.510688100352006735e+00 -4.262381465600004304e+00 -4.027671637606404431e+01
-9.799493836800010627e+00 -1.050696948940801079e+01 -3.864028057600004118e+00 -1.050696948940801079e+01 -4.586322456985604390e+01 2.466604302336002252e+00 -3.864028057600004118e+00 2.466604302336002252e+00 -2.506439643136002715e+01
-6.659512933580806759e+01 -1.064559647539201137e+01 1.040817784422401004e+01 -1.064400306176001010e+01 -3.684131658547203614e+01 -3.491169267712002977e+00 1.040817784422401004e+01 -3.492762681344003362e+00 -6.069790548377606143e+01
-2.386774279372802354e+01 3.784357376000003548e+00 9.257733201920009813e-01 3.784357376000003548e+00 -1.960854815539201823e+01 1.111884032409601097e+01 9.257733201920009813e-01 1.111884032409601097e+01 -5.163934898585605282e+01
-4.163111796326404601e+01 7.359977566208007360e+00 1.560429969817601581e+01 7.359977566208007360e+00 -4.831708156313604974e+01 -1.137697333248001152e+00 1.560429969817601581e+01 -1.137697333248001152e+00 -3.960907606425604399e+01
-4.220952711168003901e+01 -1.703996538060801669e+01 2.740671447040002651e+00 -1.703996538060801669e+01 -6.747469366067207375e+01 1.410808429772801453e+01 2.740671447040002651e+00 1.410808429772801453e+01 -9.156551436288009427e+01
-4.859433553510405090e+01 -1.065993719808001039e+01 8.424377872384008370e+00 -1.065993719808001039e+01 -2.456087772364802646e+01 -1.056911262105601068e+01 8.424377872384008370e+00 -1.056911262105601068e+01 -3.542636528025603582e+01
-5.055742112972804847e+01 3.607488462848003508e+00 -3.080068550656003268e+00 3.607488462848003508e+00 -3.250723150643202786e+01 -8.402070081536008317e+00 -3.080068550656003268e+00 -8.402070081536008317e+00 -5.826794969497606047e+01
-4.974318676377605186e+01 3.620235771904003919e+00 1.824139925913601701e+01 3.620235771904003919e+00 -6.532677208473606356e+01 -8.186959241216008820e+00 1.824139925913601701e+01 -8.186959241216008820e+00 -5.077731221094405356e+01
-4.427140435148804443e+01 -1.386269859840001395e+00 -7.831628001280008355e+00 -1.386269859840001395e+00 -4.726542856601604825e+01 -5.226396712960005297e-01 -7.831628001280008355e+00 -5.226396712960005297e-01 -2.708962515763202461e+01
-6.009240830361606811e+01 1.895684197990401998e+01 -8.524762931200008387e-01 1.895684197990401998e+01 -5.903438165196805443e+01 -1.170362312704001084e+01 -8.524762931200008387e-01 -1.170362312704001084e+01 -4.859274212147204963e+01
-4.842224686284804847e+01 -2.108086235136001907e+00 9.939714236416008930e+00 -2.108086235136001907e+00 -5.465249416396805771e+01 -4.052050866176004185e+00 9.939714236416008930e+00 -4.052050866176004185e+00 -5.612958860083205792e+01
-2.840737823129602901e+01 4.953922981888005062e+00 -5.264638640128005420e+00 4.953922981888005062e+00 -3.410383196569603115e+01 -4.396228210688004623e+00 -5.266232053760005805e+00 -4.396228210688004623e+00 -5.301287153664005558e+01
-4.917593151078405356e+01 -2.756605583360002942e+00 -6.309917982720005813e-01 -2.756605583360002942e+00 -4.618350070988804390e+01 -9.606690787328009407e+00 -6.309917982720005813e-01 -9.606690787328009407e+00 -4.856406067609604804e+01
-6.148823864524806027e+01 1.870348921241602014e+01 -6.787942072320007014e+00 1.870348921241602014e+01 -5.471782412288006014e+01 -2.454972382822402466e+01 -6.787942072320007014e+00 -2.454972382822402466e+01 -6.939475708723206537e+01
-3.704208670310404017e+01 2.979683491840003029e+00 -1.155702907289601100e+01 2.979683491840003029e+00 -5.844322519449606546e+01 -1.062328868454401132e+01 -1.155702907289601100e+01 -1.062488209817601081e+01 -3.208657030758403295e+01
-4.474624161382404708e+01 5.180187717632005473e+00 9.233831997440008266e+00 5.180187717632005473e+00 -4.831389473587204719e+01 -9.029875052544008796e+00 9.233831997440008266e+00 -9.029875052544008796e+00 -3.100304903782402732e+01
-3.180931633561603533e+01 1.729969180262401807e+01 -8.604433612800008735e-01 1.729969180262401807e+01 -5.111033566003204953e+01 -3.838533439488004184e+00 -8.604433612800008735e-01 -3.838533439488004184e+00 -5.693266907136005806e+00
-6.480413241344007425e+00 2.516000124928002624e+00 -1.047669463040001148e+01 2.516000124928002624e+00 -2.379763259392002439e+01 8.359047913472007707e+00 -1.047669463040001148e+01 8.359047913472007707e+00 -1.334802599526401501e+01
-3.958676827340804039e+01 -1.115708225126401132e+01 6.227060473856006695e+00 -1.115708225126401132e+01 -2.051360709836801988e+01 -3.934138257408003714e+00 6.228653887488006191e+00 -3.934138257408003714e+00 -2.206559197593601951e+01
-1.950338285568002039e+00 -1.556605777100801546e+01 -8.354267672576009218e+00 -1.556605777100801546e+01 -3.504075918131203338e+01 -2.354109299916802556e+01 -8.354267672576009218e+00 -2.354109299916802556e+01 -6.006691368550406196e+01
-2.803770626867202864e+01 -1.398539144806401424e+01 9.848889659392009222e+00 -1.398379803443201475e+01 -5.097489550131204794e+01 3.081661964288003208e+00 9.848889659392009222e+00 3.081661964288003208e+00 -3.762208926515203444e+01
-3.310794844569603868e+01 -4.783427723264004783e+00 2.420235965644802434e+01 -4.783427723264004783e+00 -5.083467510169604964e+01 4.222546124800004463e+00 2.420235965644802434e+01 4.222546124800004463e+00 -4.906757938380804518e+01
-4.238002237030404018e+01 3.299959631872003030e+00 -1.469924075520001594e+01 3.299959631872003030e+00 -3.327207004979203475e+01 -4.023369420800003482e+00 -1.469924075520001594e+01 -4.024962834432003866e+00 -2.719319704371202917e+01
-2.894595203891203283e+01 -5.570574057472005514e+00 4.716504350720004402e-01 -5.570574057472005514e+00 -3.605098342400003730e+01 -3.354135695360003666e+00 4.732438487040004915e-01 -3.352542281728003282e+00 -1.879112696217601908e+01
-5.304633322291205388e+01 -2.675978853580802763e+01 -3.177266782208003182e+00 -2.675978853580802763e+01 -4.832664204492804316e+01 -3.386003968000003805e+00 -3.177266782208003182e+00 -3.386003968000003805e+00 -2.202256980787202068e+01
-4.617553364172805175e+01 -5.459035103232005248e+00 4.816889409536004862e+00 -5.459035103232005248e+00 -3.152409529548803135e+01 6.967997812736006935e+00 4.816889409536004862e+00 6.967997812736006935e+00 -4.248359425638404474e+01
-5.400238140211205007e+01 7.340856602624007188e+00 2.828787220889602949e+01 7.340856602624007188e+00 -4.710130696192004507e+01 -1.104235646976001073e+00 2.828787220889602949e+01 -1.104235646976001073e+00 -5.568502619750405103e+01
-8.885352436121608832e+01 6.133049069568006217e+00 1.377984108953601350e+01 6.133049069568006217e+00 -5.372831425740805145e+01 -2.238268128870402407e+01 1.377824767590401400e+01 -2.238268128870402407e+01 -4.574690537472004337e+01
-3.629158888243203762e+01 -2.530340847616002531e+00 5.293320085504005235e+00 -2.530340847616002531e+00 -4.074996022476803859e+01 1.014367118131201018e+01 5.293320085504005235e+00 1.014526459494401145e+01 -5.921284397875206196e+01
-3.044057402572802928e+01 -8.521576103936009616e+00 1.073801446604801058e+01 -8.519982690304008344e+00 -3.371503903948803327e+01 -1.395830341632001481e+00 1.073801446604801058e+01 -1.395830341632001481e+00 -3.828972957696003476e+01
-1.757853918822401695e+01 6.387995250688007332e+00 -6.086840074240006615e+00 6.387995250688007332e+00 -2.437126150144002423e+01 2.480945025024002604e+00 -6.086840074240006615e+00 2.480945025024002604e+00 -3.096958735155202902e+01
-4.927631656960004847e+01 -7.632451297280007374e-01 -8.067453218816007521e+00 -7.632451297280007374e-01 -3.082139988377602791e+01 -7.743990251520007639e-01 -8.067453218816007521e+00 -7.743990251520007639e-01 -5.458397737779205983e+01
-4.564174007500804464e+01 3.288805736448003003e+00 2.087371857920002349e-01 3.288805736448003003e+00 -2.253724241100802317e+01 -1.298632110080001212e+01 2.087371857920002349e-01 -1.298632110080001212e+01 -1.505138516787201475e+01
-1.969937273241601972e+01 -8.236355063808007415e+00 1.794024408268801807e+01 -8.236355063808007415e+00 -2.775885888307202620e+01 3.417872240640003945e+00 1.794024408268801807e+01 3.417872240640003945e+00 -1.971849369600002078e+01
-5.679244867174405442e+01 -1.681848088576001743e+01 1.357588414464001358e+00 -1.681848088576001743e+01 -6.810887228620806866e+01 -3.096002686976003115e+00 1.357588414464001358e+00 -3.096002686976003115e+00 -6.622864420044805911e+01
-1.639463285964801642e+01 1.818084954112001883e+00 -9.968395681792010521e+00 1.818084954112001883e+00 -6.183400940339205931e+01 1.075554201600001036e+01 -9.968395681792010521e+00 1.075394860236801087e+01 -4.048864038912003593e+01
-1.853299395379201897e+01 -1.394874293452801339e+01 6.489973723136007067e+00 -1.394874293452801339e+01 -3.285778250547203072e+01 -9.938120822784011210e+00 6.489973723136007067e+00 -9.938120822784011210e+00 -3.528614488064003751e+01
-6.292390432768005581e+01 7.361570979840007745e+00 2.592483979264002425e+00 7.361570979840007745e+00 -5.789349749145605273e+01 5.054308040704005300e+00 2.592483979264002425e+00 5.054308040704005300e+00 -6.781887100518407863e+01
-2.692072331264002827e+01 4.262381465600004304e+00 1.730765887078401732e+01 4.262381465600004304e+00 -5.751426504704006248e+01 -1.332731161804801268e+01 1.730765887078401732e+01 -1.332731161804801268e+01 -4.479404402278404973e+01
-2.161146909081602274e+01 -8.730313289728009352e+00 -4.734031900672005300e+00 -8.730313289728009352e+00 -3.485114295910403115e+01 -9.394766774272008902e+00 -4.734031900672005300e+00 -9.394766774272008902e+00 -1.303093668249601222e+01
-5.618854490521606238e+01 -1.390412735283201329e+01 -1.270906712883201273e+01 -1.390412735283201329e+01 -9.571795028787209958e+01 -1.588155367014401698e+01 -1.270906712883201273e+01 -1.588155367014401698e+01 -4.270189192396804145e+01
-4.439409720115204294e+01 -6.482006654976006033e+00 -7.740803424256008647e+00 -6.480413241344007425e+00 -3.723648316620803911e+01 -1.402203996160001509e+01 -7.740803424256008647e+00 -1.402203996160001509e+01 -6.496666060390407438e+01
-7.825413688115207833e+01 -1.252901138841601281e+01 1.872898383052801918e+01 -1.252901138841601281e+01 -6.741573735628806219e+01 -5.492496789504005328e+00 1.872898383052801918e+01 -5.492496789504005328e+00 -4.216331811635203763e+01
-1.723117501644801663e+01 -2.367812657152002398e+00 -3.964413116416004357e+00 -2.367812657152002398e+00 -4.142238077747203562e+01 2.004514349056002231e+00 -3.964413116416004357e+00 2.004514349056002231e+00 -5.312281707724805102e+01
-5.245836359270405325e+01 1.803744231424001754e+00 -2.018855071744001695e+00 1.803744231424001754e+00 -2.247987952025602354e+01 1.793705725542401908e+01 -2.018855071744001695e+00 1.793705725542401908e+01 -6.097675286937606387e+01