-3.005478344899999865e+04
-3.005584892100000070e+04
-3.005591932100000122e+04
-3.005756317700000000e+04
-3.005659426099999837e+04
-3.005706326700000136e+04
-3.005418790299999819e+04
-3.005694532800000161e+04
-3.005621136499999920e+04
-3.005328124300000127e+04
-3.005895985899999869e+04
-3.005740387199999896e+04
-3.005413223400000061e+04
-3.005199940799999968e+04
-3.005738737300000139e+04
-3.005826171600000089e+04
-3.005269554900000003e+04
-3.005373481900000115e+04
-3.005716388200000074e+04
-3.005844127700000172e+04
-3.005365530299999955e+04
-3.005490081199999986e+04
-3.005718320699999822e+04
-3.005383189100000163e+04
-3.005673023200000171e+04
-3.005605083699999886e+04
-3.005255006100000173e+04
-3.005594458899999881e+04
-3.005049595300000146e+04
-3.005326256099999955e+04
-3.005591928900000130e+04
-3.005425643000000127e+04
-3.005632240000000093e+04
-3.005539691099999982e+04
-3.005397938599999907e+04
-3.005726197600000160e+04
-3.005583914500000174e+04
-3.005420215800000005e+04
-3.005612224100000094e+04
-3.005189149199999883e+04
-3.005632855399999971e+04
-3.005517401099999915e+04
-3.005751847999999882e+04
-3.005895822799999951e+04
-3.005978297599999860e+04
-3.005630243899999914e+04
-3.005696432099999947e+04
-3.005398313799999960e+04
-3.005546229400000084e+04
-3.004826262199999837e+04
-3.005749633199999880e+04
-3.005443664899999931e+04
-3.005299145000000135e+04
-3.005186835100000098e+04
-3.005849990500000058e+04
-3.005583383600000161e+04
-3.005696700799999962e+04
-3.005298695600000065e+04
-3.005349341899999854e+04
-3.005322191000000021e+04
-3.005220260799999960e+04
-3.005680961400000160e+04
-3.005247767300000123e+04
-3.005610566499999914e+04
-3.005190467100000023e+04
-3.005873416400000133e+04
-3.005455107100000168e+04
-3.005533191799999986e+04
-3.005709572800000024e+04
-3.005384825300000011e+04
-3.005853152599999885e+04
-3.005443108700000084e+04
-3.005836555099999896e+04
-3.005190576900000087e+04
-3.005522155500000008e+04
-3.005636519599999883e+04
-3.005486747000000105e+04
-3.005589172699999835e+04
-3.005841920799999934e+04
-3.005588443600000028e+04
-3.005312195900000006e+04
-3.005473530300000130e+04
-3.005438200299999880e+04
-3.005610470300000088e+04
-3.005671253599999909e+04
-3.005360987599999862e+04
-3.006087597399999868e+04
-3.005562770799999998e+04
-3.005489258400000108e+04
-3.005271086600000126e+04
-3.005425310199999876e+04
-3.005469920400000046e+04
-3.005259312499999942e+04
-3.005852345399999831e+04
-3.006085721800000101e+04
-3.005647040500000003e+04
-3.005543082100000174e+04
-3.005560806700000103e+04
-3.005542760800000178e+04
-3.005170033699999840e+04
-3.005446752199999901e+04
-3.005786985600000116e+04
-3.005370326199999909e+04
-3.005349806000000171e+04
-3.005877547799999957e+04
-3.005371455300000162e+04
-3.005675526299999910e+04
-3.005272812100000010e+04
-3.005736806499999875e+04
-3.005925810500000080e+04
-3.005261472599999979e+04
-3.005546610100000180e+04
-3.005613476599999922e+04
-3.006006690499999968e+04
-3.005477313100000174e+04
-3.005435608800000045e+04
-3.005820158799999990e+04
-3.005417983299999833e+04
-3.005387174999999843e+04
-3.005552802599999995e+04
-3.005523008599999957e+04
-3.005533028700000068e+04
-3.005840530900000158e+04
-3.005584938300000067e+04
-3.005783048599999893e+04
-3.005331396799999857e+04
-3.005331734900000083e+04
-3.005632156300000133e+04
-3.005648004500000025e+04
-3.005445122500000070e+04
-3.005684588699999949e+04
-3.005280402500000127e+04
-3.005768779599999834e+04
-3.005749611500000174e+04
-3.005353863300000012e+04
-3.005294198899999901e+04
-3.005591216100000020e+04
-3.005313724799999909e+04
-3.005335349900000074e+04
-3.005670295600000100e+04
-3.005493747799999983e+04
-3.005323170599999867e+04
-3.005288398700000107e+04
-3.005633902999999918e+04
-3.005507140300000174e+04
-3.005593664899999931e+04
-3.005731340800000180e+04
-3.005711483299999963e+04
-3.005612355699999898e+04
-3.005256284999999843e+04
-3.005493543900000077e+04
-3.005058802999999898e+04
-3.005397854100000040e+04
-3.005845678300000145e+04
-3.005763588800000070e+04
-3.005535234000000128e+04
-3.005595652699999846e+04
-3.005502109900000141e+04
-3.005643125399999917e+04
-3.005631481500000154e+04
-3.005336874900000112e+04
-3.005337294800000018e+04
-3.005949862399999984e+04
-3.005350022299999910e+04
-3.005562213999999949e+04
-3.005570150799999828e+04
-3.005956338799999867e+04
-3.005611108299999978e+04
-3.005456146399999852e+04
-3.005456142299999919e+04
-3.005762755200000174e+04
-3.005578918899999917e+04
-3.005265496799999892e+04
-3.005576484400000118e+04
-3.005525697800000125e+04
-3.005812855199999831e+04
-3.005684636200000023e+04
-3.005714304099999936e+04
-3.005320024900000135e+04
-3.005307155100000091e+04
-3.005405027100000007e+04
-3.005764952099999937e+04
-3.005406464399999822e+04
-3.005760212300000057e+04
-3.005397529500000019e+04
-3.005511884500000087e+04
-3.005663241500000004e+04
-3.005593797300000006e+04
-3.005542430800000147e+04
-3.005710189700000046e+04
-3.005690338899999915e+04
-3.005656465000000026e+04
-3.006213467500000115e+04
-3.005537025799999901e+04
-3.006089970399999947e+04
-3.005637205499999982e+04
-3.005912328799999887e+04
-3.005517456600000151e+04
-3.005892915100000027e+04
-3.005481684999999925e+04
-3.005504599199999939e+04
-3.005602931099999842e+04
-3.005755317199999990e+04
-3.005872429399999965e+04
-3.005154738699999871e+04
-3.006000172200000088e+04
-3.004973640700000033e+04
-3.005665722200000164e+04
-3.005600128499999846e+04
-3.005544531700000152e+04
-3.005779332200000135e+04
-3.005437128400000074e+04
-3.005692233100000158e+04
-3.005526186099999904e+04
-3.005520784600000115e+04
-3.005879281300000002e+04
-3.005511852400000134e+04
-3.005534260699999868e+04
-3.005217382300000099e+04
-3.005364194299999872e+04
-3.005978215300000011e+04
-3.005642988100000002e+04
-3.005806717399999980e+04
-3.005397129100000166e+04
-3.006218789000000106e+04
-3.005491186799999923e+04
-3.005449019699999917e+04
-3.005860035399999833e+04
-3.005428404099999898e+04
-3.005465567699999883e+04
-3.005638586600000053e+04
-3.005551439300000129e+04
-3.005568037499999991e+04
-3.005947697699999844e+04
-3.005560516199999984e+04
-3.005519478199999867e+04
-3.005730145300000004e+04
-3.005506202100000155e+04
-3.005276264100000117e+04
-3.005448630799999955e+04
-3.006005702599999859e+04
-3.005463253099999929e+04
-3.005366138100000171e+04
-3.005302704799999992e+04
-3.005539310100000148e+04
-3.005869937099999879e+04
-3.005866849400000137e+04
-3.005507462999999916e+04
-3.005499805700000070e+04
-3.005693436400000064e+04
-3.005594440400000167e+04
-3.005813686199999938e+04
-3.005760653599999932e+04
-3.005296430300000065e+04
-3.005891687499999898e+04
-3.005478039100000024e+04
-3.005240356199999951e+04
-3.005630572100000063e+04
-3.005779083900000114e+04
-3.005141681600000084e+04
-3.005862523599999986e+04
-3.005199174599999969e+04
-3.005587218999999823e+04
-3.005782284200000140e+04
-3.005512916799999948e+04
-3.005664311200000157e+04
-3.005515411200000017e+04
-3.005700154699999985e+04
-3.005688869600000180e+04
-3.004828415099999984e+04
-3.005397955000000002e+04
-3.005586944500000027e+04
-3.005710725900000034e+04
-3.005946520999999848e+04
-3.006025490999999965e+04
-3.005488767100000041e+04
-3.005517076000000088e+04
-3.005774677399999928e+04
-3.005099293100000068e+04
-3.005891363500000080e+04
-3.005310139100000015e+04
-3.005702482800000143e+04
-3.005267550800000026e+04
-3.005396861400000125e+04
-3.005336242199999833e+04
-3.005823865200000000e+04
-3.005394684100000086e+04
-3.005661432000000059e+04
-3.005423420999999871e+04
-3.005570309099999940e+04
-3.005510438599999907e+04
-3.005621980700000131e+04
-3.005466080499999953e+04
-3.005487047199999870e+04
-3.005569595800000025e+04
-3.005325902800000040e+04
-3.005715044699999999e+04
-3.005757766099999935e+04
-3.005533549800000037e+04
-3.005556338400000095e+04
-3.005605005099999835e+04
-3.005371152599999914e+04
-3.005488555099999940e+04
-3.005458863199999905e+04
-3.005650805599999876e+04
-3.005203119000000152e+04
-3.005000108499999988e+04
-3.005912308100000155e+04
-3.005367569699999876e+04
-3.005711077700000169e+04
-3.005201014900000155e+04
-3.005383200099999885e+04
-3.005517299300000013e+04
-3.005772837900000013e+04
-3.005197114900000088e+04
-3.005401820500000031e+04
-3.005950808600000164e+04
-3.005586138199999914e+04
-3.005672882499999832e+04
-3.004897459800000070e+04
-3.005972500800000125e+04
-3.005305921099999978e+04
-3.005418526800000109e+04
-3.006078058400000009e+04
-3.005821373500000118e+04
-3.005695942899999864e+04
-3.005512154599999849e+04
-3.005315426799999841e+04
-3.005871299999999974e+04
-3.005552983699999822e+04
-3.005484408299999996e+04
-3.005095126600000003e+04
-3.005656381899999906e+04
-3.005218823400000110e+04
-3.005764611700000023e+04
-3.005395459399999891e+04
-3.005521045999999842e+04
-3.005473521199999959e+04
-3.005889856800000052e+04
-3.005421511100000134e+04
-3.005768533300000126e+04
-3.005679358800000045e+04
-3.005703204900000128e+04
-3.005454311600000074e+04
-3.005797459600000002e+04
-3.005235015900000144e+04
-3.005264009599999918e+04
-3.005713907699999982e+04
-3.005407522600000084e+04
-3.004983024200000000e+04
-3.005691757599999983e+04
-3.005745966499999849e+04
-3.005914074899999832e+04
-3.005671250399999917e+04
-3.005592215500000020e+04
-3.005556368899999870e+04
-3.005453992700000163e+04
-3.005317578499999945e+04
-3.005376593000000139e+04
-3.005763725999999951e+04
-3.005389791600000171e+04
-3.005290598300000056e+04
-3.005766618000000017e+04
-3.005186043100000097e+04
-3.005208162499999889e+04
-3.005509255900000062e+04
-3.005740847999999824e+04
-3.006043575799999962e+04
-3.005588392699999895e+04
-3.005756679200000144e+04
-3.005576740499999869e+04
-3.005222911899999963e+04
-3.005468013399999836e+04
-3.005699563100000159e+04
-3.005823674400000164e+04
-3.005499238999999943e+04
-3.005726046199999837e+04
-3.005961762799999997e+04
-3.005618304799999896e+04
-3.005259701000000132e+04
-3.005541940800000157e+04
-3.005451817999999912e+04
-3.005493974700000035e+04
-3.005688354600000093e+04
-3.005618175200000042e+04
-3.005180386799999906e+04
-3.005889981099999932e+04
-3.005643470099999831e+04
-3.005506660099999863e+04
-3.005049770500000159e+04
-3.005321665600000051e+04
-3.005776821099999870e+04
-3.005379028399999879e+04
-3.005548811800000112e+04
-3.005825003999999899e+04
-3.005775079099999857e+04
-3.005452568600000086e+04
-3.005481022700000176e+04
-3.005446356400000150e+04
-3.005722451100000035e+04
-3.005670082299999922e+04
-3.005814869800000088e+04
-3.005455424399999902e+04
-3.005523551099999895e+04
-3.005549772500000108e+04
-3.005310251200000130e+04
-3.005767477900000085e+04
-3.005377503599999909e+04
-3.005564366599999994e+04
-3.005915671099999963e+04
-3.005507439099999829e+04
-3.005783498899999904e+04
-3.005764524900000106e+04
-3.005428737199999887e+04
-3.005636682099999962e+04
-3.005686608999999953e+04
-3.005885011999999915e+04
-3.005881819600000017e+04
-3.006005846400000155e+04
-3.005986731599999985e+04
-3.005275918399999864e+04
-3.005647000599999956e+04
-3.005435901000000013e+04
-3.005880845200000113e+04
-3.005357022900000084e+04
-3.005915546299999914e+04
-3.005507489799999894e+04
-3.005620017500000176e+04
-3.005623370399999840e+04
-3.005348190099999920e+04
-3.005658639000000039e+04
-3.005484901299999910e+04
-3.005569333199999892e+04
-3.005709198800000013e+04
-3.005444642599999861e+04
-3.005682754800000112e+04
-3.005495307500000126e+04
-3.005528854000000138e+04
-3.005625944499999969e+04
-3.005152830700000050e+04
-3.005509979400000157e+04
-3.005387624900000083e+04
-3.005810292399999889e+04
-3.005880966199999966e+04
-3.005614275400000042e+04
-3.005138872999999876e+04
-3.005660657799999899e+04
-3.005732046199999968e+04
-3.005452833599999940e+04
-3.005250750400000106e+04
-3.005508329199999935e+04
-3.005483008799999880e+04
-3.005392804400000023e+04
-3.005394397000000026e+04
-3.005605858000000080e+04
-3.005154176699999880e+04
-3.005801397799999904e+04
-3.005707481700000062e+04
-3.005929774800000087e+04
-3.005386634599999888e+04
-3.005389168699999937e+04
-3.005741369199999826e+04
-3.005663430700000026e+04
-3.005733257800000138e+04
-3.005655410399999892e+04
-3.005867627799999900e+04
-3.005399587500000052e+04
-3.005659469000000172e+04
-3.005440822000000117e+04
-3.005348565700000108e+04
-3.004641234800000166e+04
-3.005696417600000132e+04
-3.005406643800000165e+04
-3.005355555800000002e+04
-3.005309189799999876e+04
-3.005450708200000008e+04
-3.005961968599999818e+04
-3.005691871800000081e+04
-3.005485149200000160e+04
-3.005679846399999951e+04
-3.005648183699999936e+04
-3.005358089200000177e+04
-3.005455876799999896e+04
-3.005531673099999898e+04
-3.005668376599999829e+04
-3.005441756199999872e+04
-3.005309830299999885e+04
-3.005335193000000072e+04
-3.005654457099999854e+04
-3.005625548500000150e+04
-3.005876048000000083e+04
-3.005862749099999928e+04
-3.005421863200000007e+04
-3.004898676100000012e+04
-3.005576967599999989e+04
-3.005839138599999933e+04
-3.005386719599999924e+04
-3.005807243100000051e+04
-3.005654648799999995e+04
-3.005811441700000069e+04
-3.005558549599999969e+04
-3.005599316099999851e+04
-3.005544897199999832e+04
-3.005562863300000026e+04
-3.005613774099999864e+04
-3.005133040600000095e+04
-3.005596045800000138e+04
-3.005846816699999908e+04
-3.005655782900000122e+04
-3.005632943199999863e+04
-3.005588250799999878e+04
-3.005801662700000088e+04
-3.005485950199999934e+04
-3.005199088199999824e+04
-3.005284499399999913e+04
-3.005702963799999998e+04
-3.005642179200000101e+04
-3.005495737999999983e+04
-3.005837400699999853e+04
-3.005201359400000001e+04
-3.005436856899999839e+04
-3.005732450999999855e+04
-3.005613797300000078e+04
-3.005449270600000091e+04
-3.005682604100000026e+04
-3.005945223299999998e+04
-3.004811290400000144e+04
-3.006018677000000025e+04
-3.005846754599999986e+04
-3.005220849200000157e+04
-3.005847138199999972e+04
-3.005702999500000078e+04
-3.005509214599999905e+04
-3.005747860199999923e+04
-3.005598175600000104e+04
-3.005552639999999883e+04
-3.005635391199999867e+04
-3.005284826199999952e+04
-3.005842951800000083e+04
-3.005794578900000124e+04
-3.005481644900000174e+04
-3.005669559700000173e+04
-3.005580671000000075e+04
-3.005557000400000106e+04
-3.005229722699999911e+04
-3.005396616599999834e+04
-3.005435642000000007e+04
-3.005481895900000018e+04
-3.005643291799999861e+04
-3.005476485999999932e+04
-3.005528642300000138e+04
-3.005182271000000037e+04
-3.005481500199999937e+04
-3.005376379499999894e+04
-3.005577355199999874e+04
-3.005659084900000016e+04
-3.005930792799999836e+04
-3.005232206199999928e+04
-3.005357788499999879e+04
-3.005511761900000056e+04
-3.005645287599999938e+04
-3.005378711100000146e+04
-3.005568235400000049e+04
-3.005745469600000069e+04
-3.005461612099999911e+04
-3.006274434800000017e+04
-3.005992648099999860e+04
-3.005698702599999888e+04
-3.005468832599999951e+04
-3.005464303600000130e+04
-3.005183081400000083e+04
-3.005050883600000088e+04
-3.005644380599999931e+04
-3.005824101099999825e+04
-3.005976753599999938e+04
-3.005703871599999911e+04
-3.005575823899999887e+04
-3.005785926900000049e+04
-3.005428547099999923e+04
-3.005067522000000099e+04
-3.005203232999999818e+04
-3.005465485300000000e+04
-3.005975810300000012e+04
-3.005536203200000091e+04
-3.005880675600000177e+04
-3.005653946999999971e+04
-3.005549143099999856e+04
-3.005838692200000150e+04
-3.005462425100000110e+04
-3.005761496700000134e+04
-3.005433640899999955e+04
-3.005653113999999914e+04
-3.005770958500000052e+04
-3.005630083000000013e+04
-3.005364548199999990e+04
-3.005847830600000088e+04
-3.005735339300000123e+04
-3.005677485900000102e+04
-3.005058983699999953e+04
-3.005428326999999990e+04
-3.005404143900000054e+04
-3.005632048099999884e+04
-3.005328463700000066e+04
-3.005314578899999833e+04
-3.005241932699999961e+04
-3.005564578500000061e+04
-3.005477112900000066e+04
-3.005586181800000122e+04
-3.005646419999999853e+04
-3.005720603699999992e+04
-3.005556330199999866e+04
-3.005910022300000128e+04
-3.005356908900000053e+04
-3.005487315200000012e+04
-3.005387840900000083e+04
-3.005522672600000078e+04
-3.005366799499999979e+04
-3.005784016400000110e+04
-3.005454807499999879e+04
-3.005517984499999875e+04
-3.005489146899999832e+04
-3.005230099899999914e+04
-3.005162045399999988e+04
-3.005502928299999985e+04
-3.005571626000000106e+04
-3.005300951100000020e+04
-3.005692790299999979e+04
-3.005710380599999917e+04
-3.005332862899999964e+04
-3.005561532100000113e+04
-3.005674558999999863e+04
-3.005460875200000009e+04
-3.005010613999999987e+04
-3.005407855299999937e+04
-3.006080386100000032e+04
-3.005533315099999891e+04
-3.004779282800000146e+04
-3.005670352400000047e+04
-3.005785797100000127e+04
-3.005459179299999960e+04
-3.005518699900000138e+04
-3.005201320699999997e+04
-3.005307102500000110e+04
-3.005302036999999837e+04
-3.005468596199999956e+04
-3.005589914100000169e+04
-3.005123274099999981e+04
-3.005771275199999945e+04
-3.005903291900000113e+04
-3.005534127900000021e+04
-3.005579806800000006e+04
-3.005598761499999819e+04
-3.005559303200000068e+04
-3.005926800300000104e+04
-3.005700321999999869e+04
-3.005621028099999967e+04
-3.005711734399999841e+04
-3.005605611299999873e+04
-3.005113050600000133e+04
-3.005764381100000173e+04
-3.005322566999999981e+04
-3.005536746299999868e+04
-3.005496462800000154e+04
-3.005513090599999850e+04
-3.005751710499999899e+04
-3.006024039500000072e+04
-3.005742023100000006e+04
-3.005406893499999933e+04
-3.005574003000000084e+04
-3.005722830800000156e+04
-3.005499916799999846e+04
-3.005383438000000024e+04
-3.005465119599999889e+04
-3.005801722000000154e+04
-3.005385154400000101e+04
-3.005961941700000170e+04
-3.005647717800000100e+04
-3.005427785999999833e+04
-3.005495773600000030e+04
-3.005671448500000042e+04
-3.005953117500000008e+04
-3.005792984699999943e+04
-3.005330394099999830e+04
-3.005652140399999917e+04
-3.005044063399999868e+04
-3.005581787099999929e+04
-3.005850883700000122e+04
-3.005429210900000180e+04
-3.005896901599999910e+04
-3.005874087000000145e+04
-3.005258139600000140e+04
-3.005344760500000120e+04
-3.005655285699999877e+04
-3.005929671099999905e+04
-3.005641908400000102e+04
-3.005297758899999826e+04
-3.005664781600000060e+04
-3.005754199099999823e+04
-3.005762319700000080e+04
-3.005653055899999890e+04
-3.005539765199999965e+04
-3.005412919999999940e+04
-3.005787723800000094e+04
-3.005605094699999972e+04
-3.005536203200000091e+04
-3.005819188700000086e+04
-3.005694044900000154e+04
-3.005298040200000105e+04
-3.006143639400000029e+04
-3.005290755300000092e+04
-3.005500675100000080e+04
-3.005275942500000019e+04
-3.005874379200000112e+04
-3.005511301900000035e+04
-3.005089106099999844e+04
-3.005272215199999846e+04
-3.005715557999999874e+04
-3.005787156200000027e+04
-3.005691676300000108e+04
-3.005656067099999927e+04
-3.005818480999999883e+04
-3.005703218399999969e+04
-3.005854513700000098e+04
-3.005223514699999942e+04
-3.005369249199999831e+04
-3.005213460100000157e+04
-3.005795715800000107e+04
-3.005195400900000095e+04
-3.005589607299999989e+04
-3.005401711399999840e+04
-3.005727281500000026e+04
-3.005304792299999826e+04
-3.005824654999999984e+04
-3.005834176799999841e+04
-3.005371948500000144e+04
-3.005374216299999898e+04
-3.005458073000000149e+04
-3.005831859700000132e+04
-3.005222322699999859e+04
-3.005315513099999953e+04
-3.005470804900000076e+04
-3.005920120699999825e+04
-3.005454688099999839e+04
-3.005526373800000147e+04
-3.005527237099999911e+04
-3.005359614299999885e+04
-3.005704620300000170e+04
-3.005464534500000082e+04
-3.005873460500000147e+04
-3.005508164899999974e+04
-3.005158292300000176e+04
-3.005653513799999928e+04
-3.005717038600000160e+04
-3.005476035899999988e+04
-3.005908706900000107e+04
-3.005580890899999940e+04
-3.005778848799999832e+04
-3.005368419899999935e+04
-3.005687667299999885e+04
-3.005206892900000094e+04
-3.005000494400000025e+04
-3.005565391699999964e+04
-3.005236379799999850e+04
-3.005786608300000080e+04
-3.005650404699999854e+04
-3.005590744899999845e+04
-3.005166621200000009e+04
-3.005804998899999919e+04
-3.005573802200000137e+04
-3.005708651599999939e+04
-3.005762719500000094e+04
-3.005179591200000141e+04
-3.005744763800000146e+04
-3.005737227599999824e+04
-3.005411647699999958e+04
-3.005569456999999966e+04
-3.005758244900000136e+04
-3.005236835200000132e+04
-3.005741539099999864e+04
-3.005438276699999915e+04
-3.005253691999999864e+04
-3.005469757499999832e+04
-3.005454136300000027e+04
-3.005204470999999830e+04
-3.005345257199999833e+04
-3.005967924599999969e+04
-3.005968743299999915e+04
-3.005769584100000066e+04
-3.005442605399999957e+04
-3.005585310599999866e+04
-3.005366504500000156e+04
-3.005444657400000142e+04
-3.005804620499999874e+04
-3.005410799000000043e+04
-3.005832442499999888e+04
-3.005351341400000092e+04
-3.005843150999999853e+04
-3.005033721299999888e+04
-3.005877401000000100e+04
-3.005661622200000056e+04
-3.005565116699999999e+04
-3.005670256499999959e+04
-3.005495280199999979e+04
-3.005382162099999914e+04
-3.005436649899999975e+04
-3.005177204899999924e+04
-3.005455862599999818e+04
-3.005068241900000066e+04
-3.005363205400000152e+04
-3.006093913099999918e+04
-3.005808266400000139e+04
-3.005465792000000147e+04
-3.005560380300000179e+04
-3.004912178599999970e+04
-3.005906046000000060e+04
-3.005692170600000100e+04
-3.005189061500000025e+04
-3.005299265699999887e+04
-3.005363060000000041e+04
-3.005147347799999989e+04
-3.005291605300000083e+04
-3.005640313199999946e+04
-3.005312551199999871e+04
-3.005413939200000095e+04
-3.005012499499999831e+04
-3.005865700099999958e+04
-3.005715711699999883e+04
-3.005629435500000181e+04
-3.005465303399999902e+04
-3.005997562399999879e+04
-3.004887374199999977e+04
-3.005591477400000076e+04
-3.005674621499999921e+04
-3.005928866500000004e+04
-3.005604709899999943e+04
-3.005393548599999849e+04
-3.005364345500000127e+04
-3.005537336100000175e+04
-3.005473318899999867e+04
-3.005592753200000152e+04
-3.005623289400000067e+04
-3.005951150599999892e+04
-3.005628260600000067e+04
-3.005487478600000031e+04
-3.005503399400000126e+04
-3.005067256700000144e+04
-3.005388584099999935e+04
-3.005583267300000080e+04
-3.005636485199999879e+04
-3.005677848000000085e+04
-3.005627860499999952e+04
-3.005667921500000011e+04
-3.005285760300000038e+04
-3.005670788900000116e+04
-3.005561164300000019e+04
-3.005802332699999897e+04
-3.005089385100000072e+04
-3.005597407899999962e+04
-3.005802110900000116e+04
-3.005531253799999831e+04
-3.005890242099999887e+04
-3.005618209600000046e+04
-3.005644375700000091e+04
-3.005458261399999901e+04
-3.005321439900000041e+04
-3.005876383799999894e+04
-3.005710854299999846e+04
-3.005713030200000139e+04
-3.005671714799999972e+04
-3.005626724699999977e+04
-3.005322405799999979e+04
-3.005603877799999827e+04
-3.005558481300000130e+04
-3.005925154100000145e+04
-3.005478105499999947e+04
-3.004973582199999873e+04
-3.005433242299999984e+04
-3.005583500400000048e+04
-3.005356324899999890e+04
-3.005692371999999887e+04
-3.005207248400000026e+04
-3.005452161600000181e+04
-3.005356293799999912e+04
-3.005409247999999934e+04
-3.005371221700000024e+04
-3.005616917800000010e+04
-3.005201082899999892e+04
-3.005563803800000096e+04
-3.005409992499999862e+04
-3.005586840899999879e+04
-3.005718685499999992e+04
-3.005547745399999985e+04
-3.005924298700000145e+04
-3.005294481200000155e+04
-3.004739696700000059e+04
-3.005693267600000036e+04
-3.005901948300000004e+04
-3.005682810500000051e+04
-3.005295573399999921e+04
-3.005526399999999921e+04
-3.005416904599999907e+04
-3.005527322300000014e+04
-3.005430979600000137e+04
-3.005354453899999862e+04
-3.005733189000000129e+04
-3.005442478299999857e+04
-3.005562541100000090e+04
-3.005912683399999878e+04
-3.005535899100000097e+04
-3.005802153600000020e+04
-3.005927720899999986e+04
-3.005489539099999820e+04
-3.005377017699999851e+04
-3.005356517600000006e+04
-3.005531658400000015e+04
-3.005977566500000103e+04
-3.005607714699999997e+04
-3.005701329099999930e+04
-3.005146903999999995e+04
-3.005707233400000041e+04
-3.005567949099999896e+04
-3.005680952299999990e+04
-3.005721357599999828e+04
-3.005841573100000096e+04
-3.005134221800000159e+04
-3.005717361800000072e+04
-3.005697693300000174e+04
-3.006140673800000150e+04
-3.005166301000000021e+04
-3.005337556499999846e+04
-3.005729493999999977e+04
-3.005623848599999837e+04
-3.005670334500000172e+04
-3.005434185200000138e+04
-3.005396533899999849e+04
-3.005352454600000056e+04
-3.005440623200000118e+04
-3.005453299699999843e+04
-3.004919657799999914e+04
-3.005971317099999942e+04
-3.005133827400000155e+04
-3.005363215399999899e+04
-3.005553977200000008e+04
-3.005515820199999871e+04
-3.005757129500000156e+04
-3.005531513199999972e+04
-3.005571278600000005e+04
-3.005345667500000127e+04
-3.005385445999999865e+04
-3.005434324700000070e+04
-3.005657158500000151e+04
-3.005382242599999881e+04
-3.005391625199999908e+04
-3.005664483900000050e+04
-3.005933587600000101e+04
-3.005360140999999931e+04
-3.005235889099999986e+04
-3.005479325899999822e+04
-3.005768777899999986e+04
-3.005284046999999919e+04
-3.005599084600000060e+04
-3.005671396299999833e+04
-3.006013090000000011e+04
-3.005291681199999948e+04
-3.005196800499999881e+04
-3.005451690299999973e+04
-3.005771340699999928e+04
-3.005899838399999862e+04
-3.005585766000000149e+04
-3.005461962000000131e+04
-3.005774321100000088e+04
-3.005936110900000131e+04
-3.005606322599999839e+04
-3.005593055499999900e+04
-3.005497035400000095e+04
-3.005670281099999920e+04
-3.005894959100000051e+04
-3.005427040499999930e+04
-3.005461562399999821e+04
-3.005756933199999912e+04
-3.005840555799999856e+04
-3.005509802900000068e+04
-3.005495362200000091e+04
-3.005677463300000090e+04
-3.005879836200000136e+04
-3.005842379499999879e+04
-3.005556725400000141e+04
-3.005103494900000078e+04
-3.005091097599999921e+04
-3.005411910400000124e+04
-3.005914928199999849e+04
-3.005744345500000054e+04
-3.005615889800000150e+04
-3.005825363700000162e+04
-3.005845777599999928e+04
-3.005522313399999985e+04
-3.005384879200000069e+04
-3.005405485200000112e+04
-3.005490807299999869e+04
-3.005200670800000080e+04
