-5.686240000000000146e+04 3.668139999999999873e+03 7.894109999999999673e+03 3.668139999999999873e+03 -3.260309999999999854e+04 -2.826679999999999836e+03 7.894109999999999673e+03 -2.826679999999999836e+03 -4.489809999999999854e+04
-5.386669999999999709e+04 1.161119999999999891e+03 8.492540000000000873e+03 1.161119999999999891e+03 -7.291510000000000582e+04 1.548710000000000036e+04 8.492540000000000873e+03 1.548710000000000036e+04 -8.530280000000000291e+04
-5.476540000000000146e+04 7.685800000000000182e+03 -1.953450000000000045e+03 7.685800000000000182e+03 -5.426809999999999854e+04 -8.631409999999999854e+03 -1.953450000000000045e+03 -8.631409999999999854e+03 -5.366309999999999854e+04
-2.843609999999999854e+04 -1.427239999999999964e+04 2.307740000000000146e+04 -1.427239999999999964e+04 -4.217500000000000000e+04 -1.759959999999999854e+04 2.307740000000000146e+04 -1.759959999999999854e+04 -3.626240000000000146e+04
-5.089000000000000000e+04 9.105840000000000146e+03 -1.456370000000000076e+01 9.105840000000000146e+03 -7.020269999999999709e+04 -2.273290000000000146e+04 -1.456370000000000076e+01 -2.273290000000000146e+04 -6.113840000000000146e+04
-5.362980000000000291e+04 9.039049999999999272e+03 1.079660000000000036e+04 9.039049999999999272e+03 -5.540969999999999709e+04 1.137729999999999927e+04 1.079660000000000036e+04 1.137729999999999927e+04 -4.822259999999999854e+04
-5.810159999999999854e+04 6.708120000000000118e+02 -1.079320000000000073e+04 6.708120000000000118e+02 -4.925219999999999709e+04 -9.333409999999999854e+03 -1.079320000000000073e+04 -9.333409999999999854e+03 -4.967759999999999854e+04
-4.841490000000000146e+04 -5.356350000000000364e+03 2.109179999999999927e+04 -5.356350000000000364e+03 -3.100600000000000000e+04 1.518050000000000000e+04 2.109179999999999927e+04 1.518050000000000000e+04 -4.256100000000000000e+04
-3.714819999999999709e+04 -6.572340000000000146e+03 1.600310000000000036e+04 -6.572340000000000146e+03 -5.213509999999999854e+04 -1.205679999999999927e+04 1.600310000000000036e+04 -1.205679999999999927e+04 -4.276659999999999854e+04
-9.723630000000000291e+04 3.863639999999999873e+03 1.400379999999999927e+04 3.863639999999999873e+03 -7.091889999999999418e+04 2.327840000000000146e+03 1.400379999999999927e+04 2.327840000000000146e+03 -7.732580000000000291e+04
-4.672280000000000291e+04 2.198230000000000018e+03 -1.273660000000000082e+03 2.198230000000000018e+03 -2.786729999999999927e+04 -1.240639999999999964e+04 -1.273660000000000082e+03 -1.240639999999999964e+04 -4.701659999999999854e+04
-2.272759999999999854e+04 9.416380000000000337e+02 1.277150000000000000e+04 9.416380000000000337e+02 -4.710719999999999709e+04 -7.297000000000000000e+03 1.277150000000000000e+04 -7.297000000000000000e+03 -3.480909999999999854e+04
-4.591119999999999709e+04 -1.635840000000000032e+02 2.718590000000000146e+04 -1.635840000000000032e+02 -3.082059999999999854e+04 2.293119999999999891e+03 2.718590000000000146e+04 2.293119999999999891e+03 -7.662400000000000000e+04
-5.862500000000000000e+04 -1.290770000000000073e+04 2.128329999999999927e+04 -1.290770000000000073e+04 -6.540190000000000146e+04 1.760600000000000000e+04 2.128329999999999927e+04 1.760600000000000000e+04 -8.580019999999999709e+04
-4.228300000000000000e+04 5.089050000000000182e+03 -1.176170000000000073e+04 5.089050000000000182e+03 -5.019930000000000291e+04 1.514089999999999964e+04 -1.176170000000000073e+04 1.514089999999999964e+04 -5.699450000000000000e+04
-5.180250000000000000e+04 1.446509999999999991e+03 -7.736409999999999627e+02 1.446509999999999991e+03 -3.909000000000000000e+04 6.632949999999999818e+03 -7.736409999999999627e+02 6.632949999999999818e+03 -3.788400000000000000e+04
-6.028900000000000000e+04 1.747540000000000146e+04 9.254270000000000437e+03 1.747540000000000146e+04 -8.232650000000000000e+04 -1.124729999999999927e+04 9.254270000000000437e+03 -1.124729999999999927e+04 -7.310889999999999418e+04
-2.820209999999999854e+04 1.042939999999999964e+04 -7.336569999999999709e+03 1.042939999999999964e+04 -6.143259999999999854e+04 6.564840000000000146e+03 -7.336569999999999709e+03 6.564840000000000146e+03 -4.622869999999999709e+04
-5.436819999999999709e+04 5.234100000000000364e+03 1.482750000000000000e+04 5.234100000000000364e+03 -5.350659999999999854e+04 1.301539999999999964e+04 1.482750000000000000e+04 1.301539999999999964e+04 -3.806759999999999854e+04
-4.198959999999999854e+04 4.547550000000000182e+03 -1.799620000000000073e+04 4.547550000000000182e+03 -1.732650000000000000e+04 -2.348139999999999873e+03 -1.799620000000000073e+04 -2.348139999999999873e+03 -3.556540000000000146e+04
-5.059159999999999854e+04 3.412909999999999968e+02 -3.701969999999999800e+03 3.412909999999999968e+02 -8.230569999999999709e+04 1.520229999999999927e+04 -3.701969999999999800e+03 1.520229999999999927e+04 -7.227110000000000582e+04
-3.639390000000000146e+04 -1.416359999999999900e+03 -5.332220000000000255e+03 -1.416359999999999900e+03 -4.833409999999999854e+04 -9.506120000000000800e+03 -5.332220000000000255e+03 -9.506120000000000800e+03 -3.750559999999999854e+04
-5.010059999999999854e+04 -7.869539999999999964e+03 2.174259999999999877e+02 -7.869539999999999964e+03 -5.231540000000000146e+04 1.072300000000000000e+04 2.174259999999999877e+02 1.072300000000000000e+04 -5.224659999999999854e+04
-5.213769999999999709e+04 -1.240929999999999927e+04 -4.077099999999999909e+03 -1.240929999999999927e+04 -7.873560000000000582e+04 9.534070000000000391e+02 -4.077099999999999909e+03 9.534070000000000391e+02 -6.491080000000000291e+04
-3.642890000000000146e+04 -5.389149999999999636e+03 -5.608640000000000327e+03 -5.389149999999999636e+03 -3.968300000000000000e+04 -6.690470000000000255e+03 -5.608640000000000327e+03 -6.690470000000000255e+03 -4.754800000000000000e+04
-5.135390000000000146e+04 -9.883889999999999418e+03 9.613069999999999709e+03 -9.883889999999999418e+03 -8.040169999999999709e+04 2.892000000000000000e+03 9.613069999999999709e+03 2.892000000000000000e+03 -5.138809999999999854e+04
-5.444940000000000146e+04 -1.598769999999999982e+03 -6.803300000000000182e+03 -1.598769999999999982e+03 -8.784819999999999709e+04 1.191879999999999927e+04 -6.803300000000000182e+03 1.191879999999999927e+04 -7.335160000000000582e+04
-1.682370000000000073e+04 7.965159999999999854e+03 -3.070440000000000055e+03 7.965159999999999854e+03 -2.932159999999999854e+04 -1.150060000000000036e+04 -3.070440000000000055e+03 -1.150060000000000036e+04 -3.729919999999999709e+04
-5.653819999999999709e+04 -1.051500000000000000e+04 -5.991859999999999673e+03 -1.051500000000000000e+04 -4.405750000000000000e+04 -2.481550000000000000e+04 -5.991859999999999673e+03 -2.481550000000000000e+04 -3.987240000000000146e+04
-5.633040000000000146e+04 -1.306319999999999936e+03 -1.395070000000000073e+04 -1.306319999999999936e+03 -5.444859999999999854e+04 -5.554060000000000400e+03 -1.395070000000000073e+04 -5.554060000000000400e+03 -7.062330000000000291e+04
-4.038669999999999709e+04 -1.249870000000000073e+04 -1.993019999999999982e+03 -1.249870000000000073e+04 -4.438169999999999709e+04 -1.859679999999999927e+04 -1.993019999999999982e+03 -1.859679999999999927e+04 -5.521319999999999709e+04
-4.129750000000000000e+04 -2.802699999999999818e+03 -1.688799999999999955e+03 -2.802699999999999818e+03 -5.885630000000000291e+04 -1.985279999999999927e+04 -1.688799999999999955e+03 -1.985279999999999927e+04 -4.974409999999999854e+04
-5.895930000000000291e+04 8.536680000000000064e+02 3.959849999999999909e+03 8.536680000000000064e+02 -3.585890000000000146e+04 2.217390000000000146e+04 3.959849999999999909e+03 2.217390000000000146e+04 -6.049209999999999854e+04
-6.029209999999999854e+04 -5.409899999999999636e+03 -9.103039999999999736e+02 -5.409899999999999636e+03 -4.439319999999999709e+04 -8.623469999999999345e+03 -9.103039999999999736e+02 -8.623469999999999345e+03 -3.665250000000000000e+04
-5.272700000000000000e+04 7.144449999999999818e+03 2.967169999999999845e+02 7.144449999999999818e+03 -5.832940000000000146e+04 -8.625819999999999709e+03 2.967169999999999845e+02 -8.625819999999999709e+03 -4.288850000000000000e+04
-6.614830000000000291e+04 2.086139999999999873e+03 -7.914560000000000400e+03 2.086139999999999873e+03 -4.178100000000000000e+04 3.008800000000000182e+03 -7.914560000000000400e+03 3.008800000000000182e+03 -4.436850000000000000e+04
-5.727609999999999854e+04 4.643909999999999854e+03 1.334050000000000000e+04 4.643909999999999854e+03 -1.564020000000000073e+04 -3.354059999999999945e+03 1.334050000000000000e+04 -3.354059999999999945e+03 -5.331209999999999854e+04
-7.236350000000000000e+04 4.387050000000000182e+03 -9.079799999999999272e+03 4.387050000000000182e+03 -8.039560000000000582e+04 1.222420000000000073e+04 -9.079799999999999272e+03 1.222420000000000073e+04 -9.926380000000000291e+04
-5.559890000000000146e+04 5.199680000000000291e+03 -8.108590000000000146e+03 5.199680000000000291e+03 -5.243940000000000146e+04 -7.599449999999999818e+03 -8.108590000000000146e+03 -7.599449999999999818e+03 -5.757369999999999709e+04
-7.324889999999999418e+04 1.232060000000000036e+04 -1.326520000000000073e+04 1.232060000000000036e+04 -9.371930000000000291e+04 1.438800000000000000e+04 -1.326520000000000073e+04 1.438800000000000000e+04 -5.460719999999999709e+04
-3.369409999999999854e+04 -1.505960000000000036e+04 9.703979999999999563e+03 -1.505960000000000036e+04 -1.343789999999999964e+04 4.494739999999999782e+03 9.703979999999999563e+03 4.494739999999999782e+03 -9.860209999999999127e+03
-4.940240000000000146e+04 2.150130000000000109e+03 1.410689999999999964e+04 2.150130000000000109e+03 -6.584700000000000000e+04 2.110710000000000036e+03 1.410689999999999964e+04 2.110710000000000036e+03 -3.998340000000000146e+04
-5.746659999999999854e+04 5.175109999999999673e+03 -6.183390000000000327e+03 5.175109999999999673e+03 -3.789369999999999709e+04 1.113170000000000073e+03 -6.183390000000000327e+03 1.113170000000000073e+03 -3.273040000000000146e+04
-3.141959999999999854e+04 7.463819999999999709e+03 -6.051579999999999927e+03 7.463819999999999709e+03 -2.655450000000000000e+04 1.206650000000000000e+04 -6.051579999999999927e+03 1.206650000000000000e+04 -2.785420000000000073e+04
-2.158100000000000000e+04 -4.004869999999999891e+03 -3.031159999999999854e+03 -4.004869999999999891e+03 -1.824229999999999927e+04 3.239909999999999854e+03 -3.031159999999999854e+03 3.239909999999999854e+03 -3.994290000000000146e+04
-6.927860000000000582e+04 -2.601709999999999854e+04 -1.598639999999999964e+04 -2.601709999999999854e+04 -7.288219999999999709e+04 -1.001420000000000073e+04 -1.598639999999999964e+04 -1.001420000000000073e+04 -5.559859999999999854e+04
-6.659119999999999709e+04 -8.150670000000000073e+03 5.654100000000000364e+03 -8.150670000000000073e+03 -4.484069999999999709e+04 1.836570000000000073e+04 5.654100000000000364e+03 1.836570000000000073e+04 -6.860150000000000000e+04
-7.252069999999999709e+04 -1.064239999999999964e+04 2.314889999999999873e+03 -1.064239999999999964e+04 -5.463330000000000291e+04 3.136050000000000182e+03 2.314889999999999873e+03 3.136050000000000182e+03 -5.277480000000000291e+04
-4.820709999999999854e+04 -1.708950000000000045e+03 2.910520000000000073e+04 -1.708950000000000045e+03 -2.308620000000000073e+04 8.437819999999999709e+03 2.910520000000000073e+04 8.437819999999999709e+03 -3.978150000000000000e+04
-4.605890000000000146e+04 -3.843489999999999782e+03 8.382950000000000728e+03 -3.843489999999999782e+03 -7.900800000000000000e+04 2.248629999999999927e+04 8.382950000000000728e+03 2.248629999999999927e+04 -8.511200000000000000e+04
-3.566019999999999709e+04 -9.403729999999999563e+03 -7.933829999999999927e+03 -9.403729999999999563e+03 -5.525880000000000291e+04 -2.333869999999999891e+03 -7.933829999999999927e+03 -2.333869999999999891e+03 -7.473160000000000582e+04
-7.151930000000000291e+04 -5.074050000000000182e+03 -1.971250000000000000e+03 -5.074050000000000182e+03 -4.272219999999999709e+04 7.315090000000000146e+03 -1.971250000000000000e+03 7.315090000000000146e+03 -4.955230000000000291e+04
-3.335659999999999854e+04 -1.244240000000000009e+03 -1.331920000000000073e+03 -1.244240000000000009e+03 -5.389819999999999709e+04 -1.360810000000000036e+04 -1.331920000000000073e+03 -1.360810000000000036e+04 -6.836300000000000000e+04
-8.164110000000000582e+04 2.814179999999999836e+03 -1.849440000000000146e+04 2.814179999999999836e+03 -7.416880000000000291e+04 8.739690000000000509e+02 -1.849440000000000146e+04 8.739690000000000509e+02 -1.009980000000000000e+05
-4.147990000000000146e+04 -4.710250000000000000e+03 8.766020000000000437e+03 -4.710250000000000000e+03 -4.361800000000000000e+04 1.265689999999999964e+04 8.766020000000000437e+03 1.265689999999999964e+04 -4.131930000000000291e+04
-3.011429999999999927e+04 1.046230000000000018e+03 1.611379999999999927e+04 1.046230000000000018e+03 -4.410519999999999709e+04 -5.782819999999999709e+03 1.611379999999999927e+04 -5.782819999999999709e+03 -1.699379999999999927e+04
-5.575390000000000146e+04 -4.522390000000000327e+03 -6.287689999999999600e+03 -4.522390000000000327e+03 -5.722219999999999709e+04 4.707459999999999667e+01 -6.287689999999999600e+03 4.707459999999999667e+01 -4.881130000000000291e+04
-6.818789999999999418e+04 1.415180000000000064e+03 -1.906340000000000146e+04 1.415180000000000064e+03 -6.713460000000000582e+04 1.326879999999999927e+04 -1.906340000000000146e+04 1.326879999999999927e+04 -5.804850000000000000e+04
-6.723530000000000291e+04 4.973720000000000255e+03 9.331649999999999636e+03 4.973720000000000255e+03 -7.441830000000000291e+04 1.143529999999999927e+04 9.331649999999999636e+03 1.143529999999999927e+04 -5.108550000000000000e+04
-6.838519999999999709e+04 3.892039999999999964e+03 7.396439999999999600e+03 3.892039999999999964e+03 -7.460480000000000291e+04 -2.600719999999999800e+03 7.396439999999999600e+03 -2.600719999999999800e+03 -5.993959999999999854e+04
-5.270700000000000000e+04 -6.127930000000000291e+03 -1.283529999999999927e+04 -6.127930000000000291e+03 -8.424100000000000000e+04 -7.715079999999999927e+03 -1.283529999999999927e+04 -7.715079999999999927e+03 -9.098189999999999418e+04
-6.057940000000000146e+04 1.203270000000000073e+04 1.478140000000000100e+03 1.203270000000000073e+04 -4.909159999999999854e+04 1.039629999999999927e+04 1.478140000000000100e+03 1.039629999999999927e+04 -5.454540000000000146e+04
-6.924810000000000582e+04 -1.440689999999999964e+04 7.637409999999999854e+03 -1.440689999999999964e+04 -6.640789999999999418e+04 -2.975699999999999818e+03 7.637409999999999854e+03 -2.975699999999999818e+03 -8.006600000000000000e+04
-5.251619999999999709e+04 3.398639999999999873e+03 -8.199800000000000182e+02 3.398639999999999873e+03 -6.608469999999999709e+04 4.005309999999999945e+03 -8.199800000000000182e+02 4.005309999999999945e+03 -4.590959999999999854e+04
-4.744140000000000146e+04 -7.677859999999999673e+03 7.236240000000000236e+02 -7.677859999999999673e+03 -3.933790000000000146e+04 2.321659999999999854e+04 7.236240000000000236e+02 2.321659999999999854e+04 -7.100180000000000291e+04
-3.623019999999999709e+04 -1.359400000000000000e+04 2.935829999999999927e+03 -1.359400000000000000e+04 -5.881890000000000146e+04 -1.852440000000000146e+04 2.935829999999999927e+03 -1.852440000000000146e+04 -1.498689999999999964e+04
-3.524909999999999854e+04 -1.963299999999999955e+03 -6.481729999999999563e+03 -1.963299999999999955e+03 -3.573459999999999854e+04 -3.416909999999999854e+04 -6.481729999999999563e+03 -3.416909999999999854e+04 -5.005100000000000000e+04
-4.249390000000000146e+04 -4.866920000000000073e+03 3.984710000000000036e+03 -4.866920000000000073e+03 -5.701690000000000146e+04 -6.096890000000000327e+03 3.984710000000000036e+03 -6.096890000000000327e+03 -3.912430000000000291e+04
-3.829900000000000000e+04 -6.137489999999999782e+03 -5.006819999999999709e+03 -6.137489999999999782e+03 -4.356150000000000000e+04 -4.191109999999999673e+03 -5.006819999999999709e+03 -4.191109999999999673e+03 -6.139890000000000146e+04
-4.577190000000000146e+04 -2.744459999999999854e+04 -1.291309999999999945e+03 -2.744459999999999854e+04 -3.164220000000000073e+04 -7.690510000000000218e+03 -1.291309999999999945e+03 -7.690510000000000218e+03 -8.613969999999999709e+04
-3.963659999999999854e+04 -7.508390000000000327e+03 -3.975449999999999818e+03 -7.508390000000000327e+03 -4.937119999999999709e+04 -6.026720000000000255e+03 -3.975449999999999818e+03 -6.026720000000000255e+03 -4.757659999999999854e+04
-6.062780000000000291e+04 -1.477489999999999964e+04 -9.659110000000000582e+03 -1.477489999999999964e+04 -2.981079999999999927e+04 -9.436239999999999782e+03 -9.659110000000000582e+03 -9.436239999999999782e+03 -6.306090000000000146e+04
-2.891670000000000073e+04 -3.026309999999999945e+03 -2.462739999999999782e+03 -3.026309999999999945e+03 -2.847440000000000146e+04 9.080239999999999782e+03 -2.462739999999999782e+03 9.080239999999999782e+03 -4.195019999999999709e+04
-9.616800000000000000e+04 -1.257770000000000073e+04 -6.811689999999999600e+03 -1.257770000000000073e+04 -7.766010000000000582e+04 1.317910000000000036e+04 -6.811689999999999600e+03 1.317910000000000036e+04 -6.974630000000000291e+04
-6.925260000000000582e+04 -2.278699999999999818e+03 -7.018670000000000073e+03 -2.278699999999999818e+03 -6.211219999999999709e+04 1.146350000000000000e+04 -7.018670000000000073e+03 1.146350000000000000e+04 -4.599480000000000291e+04
-5.574109999999999854e+04 1.357620000000000073e+04 -2.926710000000000036e+03 1.357620000000000073e+04 -2.623740000000000146e+04 8.521819999999999709e+03 -2.926710000000000036e+03 8.521819999999999709e+03 -4.521140000000000146e+04
-4.626209999999999854e+04 8.741159999999999854e+02 1.237120000000000073e+04 8.741159999999999854e+02 -7.763460000000000582e+04 -7.586949999999999818e+03 1.237120000000000073e+04 -7.586949999999999818e+03 -7.148330000000000291e+04
-5.032590000000000146e+04 6.759909999999999854e+03 1.020400000000000000e+04 6.759909999999999854e+03 -5.095419999999999709e+04 -1.263629999999999927e+04 1.020400000000000000e+04 -1.263629999999999927e+04 -3.925719999999999709e+04
-5.438230000000000291e+04 -6.840819999999999709e+03 -3.000409999999999854e+03 -6.840819999999999709e+03 -3.384700000000000000e+04 -1.130639999999999964e+04 -3.000409999999999854e+03 -1.130639999999999964e+04 -4.353930000000000291e+04
-5.591380000000000291e+04 2.879199999999999818e+03 1.546250000000000000e+03 2.879199999999999818e+03 -4.722759999999999854e+04 7.132090000000000146e+03 1.546250000000000000e+03 7.132090000000000146e+03 -3.845900000000000000e+04
-8.861050000000000000e+04 -7.353930000000000291e+02 1.554450000000000000e+04 -7.353930000000000291e+02 -6.288540000000000146e+04 -3.378190000000000055e+03 1.554450000000000000e+04 -3.378190000000000055e+03 -6.665239999999999418e+04
-6.695389999999999418e+04 1.115589999999999964e+04 8.564770000000000437e+03 1.115589999999999964e+04 -6.874589999999999418e+04 1.106750000000000000e+04 8.564770000000000437e+03 1.106750000000000000e+04 -4.889969999999999709e+04
-7.355110000000000582e+04 -1.488089999999999964e+04 1.697659999999999854e+04 -1.488089999999999964e+04 -4.099519999999999709e+04 6.094390000000000327e+03 1.697659999999999854e+04 6.094390000000000327e+03 -6.212769999999999709e+04
-3.532150000000000000e+04 1.807620000000000073e+04 2.542229999999999927e+04 1.807620000000000073e+04 -8.707400000000000000e+04 -1.205489999999999964e+04 2.542229999999999927e+04 -1.205489999999999964e+04 -8.689510000000000582e+04
-3.793969999999999709e+04 -3.335820000000000164e+03 -2.497859999999999854e+04 -3.335820000000000164e+03 -6.938189999999999418e+04 -1.032400000000000091e+03 -2.497859999999999854e+04 -1.032400000000000091e+03 -3.234829999999999927e+04
-7.242980000000000291e+04 1.327460000000000036e+04 3.363619999999999891e+03 1.327460000000000036e+04 -6.630510000000000582e+04 1.019239999999999964e+04 3.363619999999999891e+03 1.019239999999999964e+04 -5.879969999999999709e+04
-5.321000000000000000e+04 3.833190000000000055e+03 -4.390140000000000327e+03 3.833190000000000055e+03 -2.357140000000000146e+04 1.071870000000000073e+04 -4.390140000000000327e+03 1.071870000000000073e+04 -1.147520000000000073e+04
-3.340880000000000291e+04 -1.988609999999999900e+03 9.686620000000000800e+03 -1.988609999999999900e+03 -2.975479999999999927e+04 -7.382470000000000255e+03 9.686620000000000800e+03 -7.382470000000000255e+03 -4.722709999999999854e+04
-3.906819999999999709e+04 -6.701500000000000000e+03 1.412380000000000109e+03 -6.701500000000000000e+03 -3.602150000000000000e+04 2.351960000000000036e+03 1.412380000000000109e+03 2.351960000000000036e+03 -8.794880000000000291e+04
-4.248159999999999854e+04 -1.434139999999999964e+04 -3.923219999999999800e+03 -1.434139999999999964e+04 -4.504890000000000146e+04 -1.098460000000000036e+04 -3.923219999999999800e+03 -1.098460000000000036e+04 -5.220190000000000146e+04
-3.760269999999999709e+04 5.746920000000000073e+03 -4.235239999999999782e+03 5.746920000000000073e+03 -5.419859999999999854e+04 1.006120000000000073e+04 -4.235239999999999782e+03 1.006120000000000073e+04 -4.529430000000000291e+04
-4.712369999999999709e+04 -1.269350000000000000e+04 2.017589999999999918e+03 -1.269350000000000000e+04 -3.917430000000000291e+04 5.905939999999999600e+03 2.017589999999999918e+03 5.905939999999999600e+03 -5.632650000000000000e+04
-6.339300000000000000e+04 6.616039999999999964e+03 -1.776450000000000000e+04 6.616039999999999964e+03 -8.471200000000000000e+04 2.225599999999999909e+03 -1.776450000000000000e+04 2.225599999999999909e+03 -9.385930000000000291e+04
-4.990640000000000146e+04 1.536690000000000055e+03 -1.520300000000000000e+04 1.536690000000000055e+03 -7.085310000000000582e+04 -5.623199999999999818e+03 -1.520300000000000000e+04 -5.623199999999999818e+03 -4.595390000000000146e+04
-3.369919999999999709e+04 1.593079999999999927e+04 8.079609999999999673e+03 1.593079999999999927e+04 -2.455479999999999927e+04 2.162780000000000200e+03 8.079609999999999673e+03 2.162780000000000200e+03 -1.656170000000000073e+04
-5.807619999999999709e+04 -2.430960000000000036e+03 -9.513030000000000655e+03 -2.430960000000000036e+03 -7.487900000000000000e+04 8.425459999999999127e+03 -9.513030000000000655e+03 8.425459999999999127e+03 -5.270169999999999709e+04
-6.813480000000000291e+04 4.123880000000000109e+03 -2.037579999999999927e+04 4.123880000000000109e+03 -3.748500000000000000e+04 -1.811720000000000073e+04 -2.037579999999999927e+04 -1.811720000000000073e+04 -4.933459999999999854e+04
-5.760819999999999709e+04 -4.427949999999999875e+01 1.526910000000000036e+04 -4.427949999999999875e+01 -3.575209999999999854e+04 -1.796700000000000000e+04 1.526910000000000036e+04 -1.796700000000000000e+04 -5.533350000000000000e+04
-3.864619999999999709e+04 -2.365199999999999818e+03 1.097070000000000073e+04 -2.365199999999999818e+03 -4.175530000000000291e+04 -1.976179999999999927e+04 1.097070000000000073e+04 -1.976179999999999927e+04 -4.774209999999999854e+04
-5.949430000000000291e+04 -2.743520000000000073e+04 2.367110000000000127e+03 -2.743520000000000073e+04 -8.578410000000000582e+04 -7.843800000000000182e+03 2.367110000000000127e+03 -7.843800000000000182e+03 -7.562480000000000291e+04
-6.590339999999999418e+04 -1.602110000000000036e+04 8.327200000000000728e+03 -1.602110000000000036e+04 -6.605489999999999418e+04 1.585870000000000073e+04 8.327200000000000728e+03 1.585870000000000073e+04 -7.252869999999999709e+04
-8.371619999999999709e+04 1.760309999999999854e+04 -6.336970000000000255e+03 1.760309999999999854e+04 -4.807530000000000291e+04 -5.448729999999999563e+03 -6.336970000000000255e+03 -5.448729999999999563e+03 -6.510000000000000000e+04
-7.826310000000000582e+04 -1.424870000000000073e+04 1.195660000000000036e+04 -1.424870000000000073e+04 -6.356740000000000146e+04 4.082840000000000146e+03 1.195660000000000036e+04 4.082840000000000146e+03 -7.394150000000000000e+04
-5.933119999999999709e+04 5.092880000000000109e+02 -2.443150000000000000e+04 5.092880000000000109e+02 -1.895250000000000000e+04 5.698959999999999582e+02 -2.443150000000000000e+04 5.698959999999999582e+02 -2.570150000000000000e+04
-4.836940000000000146e+04 -7.240359999999999673e+03 1.727930000000000064e+03 -7.240359999999999673e+03 -5.144869999999999709e+04 -1.464429999999999927e+04 1.727930000000000064e+03 -1.464429999999999927e+04 -7.423469999999999709e+04
-3.684450000000000000e+04 1.749329999999999927e+04 -2.518929999999999927e+04 1.749329999999999927e+04 -5.968409999999999854e+04 5.045800000000000182e+03 -2.518929999999999927e+04 5.045800000000000182e+03 -6.054419999999999709e+04
-4.464200000000000000e+04 -1.105850000000000000e+04 -1.331920000000000073e+03 -1.105850000000000000e+04 -7.154050000000000000e+04 8.456059999999999491e+03 -1.331920000000000073e+03 8.456059999999999491e+03 -3.393190000000000146e+04
-5.612859999999999854e+04 5.533609999999999673e+03 6.955409999999999854e+03 5.533609999999999673e+03 -2.663670000000000073e+04 1.052810000000000036e+04 6.955409999999999854e+03 1.052810000000000036e+04 -3.893069999999999709e+04
-7.100760000000000582e+04 1.326470000000000073e+04 1.390420000000000073e+04 1.326470000000000073e+04 -4.394280000000000291e+04 -6.392869999999999891e+03 1.390420000000000073e+04 -6.392869999999999891e+03 -5.293900000000000000e+04
-4.320519999999999709e+04 -4.078280000000000200e+03 1.367519999999999982e+03 -4.078280000000000200e+03 -2.520989999999999782e+03 -1.054229999999999927e+04 1.367519999999999982e+03 -1.054229999999999927e+04 -2.369590000000000146e+04
-7.220839999999999418e+04 7.453959999999999582e+02 1.638829999999999927e+04 7.453959999999999582e+02 -9.420839999999999418e+04 -5.348699999999999818e+03 1.638829999999999927e+04 -5.348699999999999818e+03 -9.729580000000000291e+04
-4.122880000000000291e+04 2.427429999999999836e+03 -1.139779999999999927e+04 2.427429999999999836e+03 -5.170390000000000146e+04 -3.186510000000000218e+03 -1.139779999999999927e+04 -3.186510000000000218e+03 -1.924329999999999927e+04
-4.387359999999999854e+04 6.568079999999999927e+03 -3.083969999999999800e+03 6.568079999999999927e+03 -5.682280000000000291e+04 -2.941719999999999800e+03 -3.083969999999999800e+03 -2.941719999999999800e+03 -2.750490000000000146e+04
-7.960960000000000582e+04 -8.571389999999999418e+03 -2.204559999999999945e+03 -8.571389999999999418e+03 -4.875030000000000291e+04 4.070039999999999964e+03 -2.204559999999999945e+03 4.070039999999999964e+03 -4.412200000000000000e+04
-5.166009999999999854e+04 -1.485940000000000055e+03 1.613220000000000073e+04 -1.485940000000000055e+03 -7.411860000000000582e+04 9.101570000000000391e+02 1.613220000000000073e+04 9.101570000000000391e+02 -6.031530000000000291e+04
-4.689040000000000146e+04 5.880199999999999818e+03 1.931000000000000000e+04 5.880199999999999818e+03 -5.223980000000000291e+04 -4.221119999999999891e+03 1.931000000000000000e+04 -4.221119999999999891e+03 -3.437280000000000291e+04
-7.111200000000000000e+04 -2.832269999999999982e+03 -1.093339999999999964e+04 -2.832269999999999982e+03 -5.136440000000000146e+04 1.733300000000000000e+04 -1.093339999999999964e+04 1.733300000000000000e+04 -6.427959999999999854e+04
-3.393159999999999854e+04 2.212500000000000000e+02 -9.110989999999999782e+03 2.212500000000000000e+02 -5.157869999999999709e+04 -9.782680000000000291e+02 -9.110989999999999782e+03 -9.782680000000000291e+02 -7.524719999999999709e+04
-7.394719999999999709e+04 3.858639999999999873e+03 -4.820729999999999563e+03 3.858639999999999873e+03 -2.941479999999999927e+04 1.606419999999999959e+02 -4.820729999999999563e+03 1.606419999999999959e+02 -6.429630000000000291e+04
-3.929990000000000146e+04 -5.402390000000000327e+03 6.826250000000000000e+03 -5.402390000000000327e+03 -5.096309999999999854e+04 4.077830000000000155e+02 6.826250000000000000e+03 4.077830000000000155e+02 -5.320250000000000000e+04
-5.625590000000000146e+04 -2.028959999999999854e+04 -1.788979999999999927e+04 -2.028959999999999854e+04 -5.229009999999999854e+04 -1.402819999999999936e+03 -1.788979999999999927e+04 -1.402819999999999936e+03 -4.874759999999999854e+04
-5.206419999999999709e+04 1.317400000000000000e+04 2.733690000000000146e+04 1.317400000000000000e+04 -6.295459999999999854e+04 -2.379030000000000200e+03 2.733690000000000146e+04 -2.379030000000000200e+03 -6.562750000000000000e+04
-5.655450000000000000e+04 7.718759999999999764e+02 1.470770000000000073e+04 7.718759999999999764e+02 -2.650490000000000146e+04 -8.653629999999999200e+03 1.470770000000000073e+04 -8.653629999999999200e+03 -2.852690000000000146e+04
-6.031500000000000000e+04 -1.256789999999999964e+04 1.159359999999999900e+03 -1.256789999999999964e+04 -4.181530000000000291e+04 -7.170040000000000191e+02 1.159359999999999900e+03 -7.170040000000000191e+02 -5.527919999999999709e+04
-5.665169999999999709e+04 1.068710000000000036e+04 2.389769999999999982e+03 1.068710000000000036e+04 -7.380480000000000291e+04 -1.419460000000000036e+04 2.389769999999999982e+03 -1.419460000000000036e+04 -6.953800000000000000e+04
-4.813109999999999854e+04 -2.024349999999999909e+03 9.789010000000000218e+03 -2.024349999999999909e+03 -3.360300000000000000e+04 -5.930810000000000400e+03 9.789010000000000218e+03 -5.930810000000000400e+03 -4.585109999999999854e+04
-5.656919999999999709e+04 1.434239999999999964e+04 -4.014869999999999891e+03 1.434239999999999964e+04 -6.108159999999999854e+04 1.000450000000000000e+04 -4.014869999999999891e+03 1.000450000000000000e+04 -4.587830000000000291e+04
-4.287519999999999709e+04 1.562710000000000036e+04 3.389070000000000164e+03 1.562710000000000036e+04 -5.200119999999999709e+04 1.630239999999999964e+04 3.389070000000000164e+03 1.630239999999999964e+04 -2.768590000000000146e+04
-1.375989999999999964e+04 -1.281600000000000000e+04 -4.638319999999999709e+03 -1.281600000000000000e+04 -5.278600000000000000e+04 1.931340000000000146e+04 -4.638319999999999709e+03 1.931340000000000146e+04 -5.400130000000000291e+04