-1.007507808950000026e+03
-1.008790688960000011e+03
-1.004568172959999970e+03
-1.007350549210000054e+03
-1.009110201599999982e+03
-1.008054076860000009e+03
-1.009524372839999955e+03
-1.006130243009999958e+03
-1.008064818540000033e+03
-1.007680454550000036e+03
-1.009389074359999995e+03
-1.008116123580000021e+03
-1.011067162309999958e+03
-1.010022135110000022e+03
-1.009000751789999981e+03
-1.008991007190000005e+03
-1.007695273380000003e+03
-1.012884291790000020e+03
-1.012888397879999957e+03
-1.009069456560000049e+03
-1.004953833840000016e+03
-1.006489270740000052e+03
-1.005829602010000031e+03
-1.009617623829999957e+03
-1.007253823000000011e+03
-1.003723839839999982e+03
-1.007870260830000007e+03
-1.008555799650000040e+03
-1.008164792410000018e+03
-1.006777030399999944e+03
-1.004792824269999983e+03
-1.007127186299999948e+03
-1.006274970929999995e+03
-1.007612868749999961e+03
-1.002919939050000039e+03
-1.007358681000000047e+03
-1.009752743710000004e+03
-1.009525228859999970e+03
-1.005522836760000018e+03
-1.007967187200000012e+03
-1.006621537269999976e+03
-1.005655166829999985e+03
-1.004329574839999964e+03
-1.005512194270000009e+03
-1.007272561770000038e+03
-1.010421338470000023e+03
-1.006543235080000045e+03
-1.010221798339999964e+03
-1.007181953450000037e+03
-1.007720971889999987e+03
-1.007883752960000038e+03
-1.009192065269999944e+03
-1.009629286689999958e+03
-1.007800838150000004e+03
-1.007737891050000030e+03
-1.004192959569999971e+03
-1.006143062880000002e+03
-1.005192902310000022e+03
-1.009199245539999993e+03
-1.003599220309999964e+03
-1.008307766020000031e+03
-1.006280694560000029e+03
-1.006754181440000025e+03
-1.009411272810000014e+03
-1.006669007039999997e+03
-1.008670117829999981e+03
-1.011528888309999957e+03
-1.005461653060000003e+03
-1.006108951629999979e+03
-1.010201556080000046e+03
-1.010209124040000006e+03
-1.007431905460000053e+03
-1.008796040429999948e+03
-1.008034865399999944e+03
-1.009610042730000032e+03
-1.007888853840000024e+03
-1.009063999589999980e+03
-1.005577097139999978e+03
-1.009547831129999963e+03
-1.010936426190000020e+03
-1.007016791150000017e+03
-1.008920025639999949e+03
-1.006773084089999998e+03
-1.008393723870000031e+03
-1.005230588180000041e+03
-1.007433325220000029e+03
-1.002374344479999991e+03
-1.009662804570000048e+03
-1.007357819680000034e+03
-1.006921057499999961e+03
-1.007695056410000007e+03
-1.008566863610000041e+03
-1.011897650210000052e+03
-1.010699293190000049e+03
-1.009348904530000027e+03
-1.004975435410000046e+03
-1.007654908070000033e+03
-1.004669896799999947e+03
-1.005161752370000045e+03
-1.009794683159999977e+03
-1.003011741290000032e+03
-1.008663917559999959e+03
-1.006528477100000032e+03
-1.009407846149999955e+03
-1.010796320049999963e+03
-1.004295667869999988e+03
-1.000996792830000004e+03
-1.007197056330000009e+03
-1.006860469429999966e+03
-1.006151043449999975e+03
-1.007601777749999997e+03
-1.005746264389999965e+03
-1.002997767650000014e+03
-1.006322698090000017e+03
-1.008056504290000021e+03
-1.012295716520000042e+03
-1.009304107589999944e+03
-1.007153831749999995e+03
-1.002194948279999949e+03
-1.008181799090000027e+03
-1.003630480339999963e+03
-1.010886805500000037e+03
-1.004277519839999968e+03
-1.007865216629999964e+03
-1.012820321110000009e+03
-1.008614972709999961e+03
-1.007323461329999986e+03
-1.007010895860000005e+03
-1.002592056820000039e+03
-1.003491884290000030e+03
-1.004197424879999971e+03
-1.006616810839999971e+03
-1.009368267260000039e+03
-1.006645170069999949e+03
-1.009817259990000025e+03
-1.007416255190000015e+03
-1.008301610569999980e+03
-1.008830700930000035e+03
-1.005072897069999954e+03
-1.010497612450000020e+03
-1.009492772009999953e+03
-1.008520940460000020e+03
-1.007696845080000003e+03
-1.009516196390000005e+03
-1.006755039560000000e+03
-1.011167277280000008e+03
-1.006018261789999997e+03
-1.010186192750000032e+03
-1.005593759370000043e+03
-1.005897822460000043e+03
-1.004207811180000022e+03
-1.009791872799999965e+03
-1.004263442199999986e+03
-1.005747394490000033e+03
-1.007959919979999995e+03
-1.009140692869999953e+03
-1.009175131449999981e+03
-1.009216759369999977e+03
-1.007617359839999949e+03
-1.007887893790000021e+03
-1.005633843329999991e+03
-1.008928111390000026e+03
-1.007105318450000027e+03
-1.005979002980000018e+03
-1.008045763680000050e+03
-1.005665118949999965e+03
-1.011016145980000033e+03
-1.006879552300000000e+03
-1.008269938610000054e+03
-1.008459409430000051e+03
-1.009099496860000045e+03
-1.004900150680000024e+03
-1.006586043330000052e+03
-1.008679296030000046e+03
-1.006455724460000056e+03
-1.004404969840000035e+03
-1.009814593840000043e+03
-1.010461726460000023e+03
-1.010645591200000013e+03
-1.008390426290000050e+03
-1.007683034049999947e+03
-1.004002118360000054e+03
-1.008387157139999999e+03
-1.007462720450000006e+03
-1.005794848099999967e+03
-1.010429632009999978e+03
-1.007885464559999946e+03
-1.010590816140000015e+03
-1.010472782120000034e+03
-1.007381304659999955e+03
-1.008895916230000012e+03
-1.008145749260000002e+03
-1.006098189720000050e+03
-1.008916597030000048e+03
-1.008242084429999977e+03
-1.007195554799999968e+03
-1.007527581430000055e+03
-1.008637068210000052e+03
-1.007374866480000037e+03
-1.008173119590000056e+03
-1.006437236480000024e+03
-1.008120539129999997e+03
-1.008414035290000015e+03
-1.008215550229999963e+03
-1.007944402139999966e+03
-1.006940317469999968e+03
-1.005410938299999998e+03
-1.006548110909999991e+03
-1.007447693579999964e+03
-1.010565923559999987e+03
-1.008282621889999973e+03
-1.006729167759999996e+03
-1.003432220140000027e+03
-1.008467447180000022e+03
-1.009886073460000034e+03
-1.006389433950000011e+03
-1.006305375939999976e+03
-1.007112444460000006e+03
-1.010051091280000037e+03
-1.007706608390000042e+03
-1.006417205549999949e+03
-1.008802903710000010e+03
-1.011477521990000014e+03
-1.004874753309999960e+03
-1.010000372930000026e+03
-1.006558644120000054e+03
-1.006988364680000018e+03
-1.002974044029999959e+03
-1.006439153990000023e+03
-1.006663265339999953e+03
-1.007433575150000024e+03
-1.004444611910000049e+03
-1.004733924000000002e+03
-1.004618411349999974e+03
-1.005977038269999980e+03
-1.009811275010000031e+03
-1.009875094569999987e+03
-1.008920943800000032e+03
-1.007192024769999989e+03
-1.009149557110000046e+03
-1.007524679809999952e+03
-1.007947522970000023e+03
-1.010686904949999985e+03
-1.007997414769999978e+03
-1.005078525420000005e+03
-1.011846646549999946e+03
-1.010039484069999958e+03
-1.006199591339999984e+03
-1.008475051789999952e+03
-1.007981195970000044e+03
-1.009714339969999969e+03
-1.003791537059999996e+03
-1.006671465969999986e+03
-1.012035042829999952e+03
-1.007837339700000030e+03
-1.004827055920000021e+03
-1.008855439950000005e+03
-1.006943655509999985e+03
-1.009260920690000034e+03
-1.008969295040000020e+03
-1.008779697080000005e+03
-1.008136899969999945e+03
-1.008225266260000012e+03
-1.007089768439999943e+03
-1.012716984440000033e+03
-1.008919144110000047e+03
-1.009691352329999972e+03
-1.010272078660000034e+03
-1.005540490070000033e+03
-1.008995154169999978e+03
-1.010289293960000009e+03
-1.007616134439999996e+03
-1.008803095200000030e+03
-1.005355019539999944e+03
-1.006190144430000032e+03
-1.006887136299999952e+03
-1.008011344839999992e+03
-1.008219093479999970e+03
-1.005194816400000036e+03
-1.006395898249999959e+03
-1.001909702260000017e+03
-1.008362614050000047e+03
-1.002511711379999952e+03
-1.008958889720000002e+03
-1.009886067899999944e+03
-1.004356072960000006e+03
-1.010082421690000047e+03
-1.010932534209999972e+03
-1.009353433160000009e+03
-1.011942266229999973e+03
-1.006781082930000025e+03
-1.005930025829999977e+03
-1.007808955380000043e+03
-1.006875140989999977e+03
-1.009610585420000007e+03
-1.008518378940000048e+03
-1.006760269200000039e+03
-1.009037444209999990e+03
-1.007190906710000036e+03
-1.008343693099999996e+03
-1.007692603989999952e+03
-1.005530157359999976e+03
-1.006855330389999949e+03
-1.009396666709999977e+03
-1.007530007240000032e+03
-1.009954911909999964e+03
-1.011269203609999977e+03
-1.009475837189999993e+03
-1.006455304709999950e+03
-1.006535651990000019e+03
-1.007725841749999972e+03
-1.008394179290000011e+03
-1.004495118870000056e+03
-1.006738871259999996e+03
-1.003613215100000048e+03
-1.007291569589999995e+03
-1.007233136560000048e+03
-1.007315838750000012e+03
-1.010071804810000003e+03
-1.009438711819999980e+03
-1.008184421069999985e+03
-1.004455940609999971e+03
-1.004227358340000023e+03
-1.008670690929999978e+03
-1.003714672879999966e+03
-1.003217896949999954e+03
-1.004657737079999947e+03
-1.005674225289999981e+03
-1.004808248879999951e+03
-1.006656255549999969e+03
-1.004498361769999974e+03
-1.005472624239999959e+03
-1.007109366049999949e+03
-1.007701472449999983e+03
-1.008855286109999952e+03
-1.007646466030000056e+03
-1.007554221109999958e+03
-1.000054011149999951e+03
-1.009951218789999984e+03
-1.007004399970000009e+03
-1.008172297800000024e+03
-1.010015494340000032e+03
-1.005708213549999982e+03
-1.006563199189999978e+03
-1.011067231419999985e+03
-1.008222917800000005e+03
-1.006789976939999974e+03
-1.008441148809999959e+03
-1.005716877989999944e+03
-1.007574866199999974e+03
-1.009298824110000055e+03
-1.009147212439999976e+03
-1.008338285120000023e+03
-1.011237700570000015e+03
-1.006007936470000004e+03
-1.008767779560000008e+03
-1.007104388599999993e+03
-1.004145677829999954e+03
-1.007262130060000004e+03
-1.007997330079999983e+03
-1.007071940440000049e+03
-1.009484769700000015e+03
-1.003872486950000052e+03
-1.005822942140000009e+03
-1.006209308849999957e+03
-1.005753973999999971e+03
-1.005151678960000027e+03
-1.007119604529999947e+03
-1.007804821540000034e+03
-1.008349909509999975e+03
-1.003138207210000019e+03
-1.004284739339999987e+03
-1.006837120870000035e+03
-1.009276161350000052e+03
-1.007389830500000016e+03
-1.008126356040000019e+03
-1.010596013800000037e+03
-1.007968581920000020e+03
-1.009299819100000036e+03
-1.006826978550000035e+03
-1.006639363789999948e+03
-1.006641851299999985e+03
-1.006411020580000013e+03
-1.009233017150000023e+03
-1.009194287730000042e+03
-1.007278644040000017e+03
-1.008769243579999966e+03
-1.007115315590000023e+03
-1.005865347120000024e+03
-1.006221816350000040e+03
-1.008444211640000049e+03
-1.007558037870000021e+03
-1.005969372529999987e+03
-1.004038858770000047e+03
-1.009532233099999985e+03
-1.005745130049999943e+03
-1.008026594489999979e+03
-1.006682012940000050e+03
-1.005733775830000013e+03
-1.005023813529999984e+03
-1.011824120910000033e+03
-1.009249599869999997e+03
-1.007880639810000048e+03
-1.005066457170000035e+03
-1.008783590799999956e+03
-1.009024425739999970e+03
-1.005234062760000029e+03
-1.004654862679999951e+03
-1.009007271889999970e+03
-1.008144314590000022e+03
-1.010754398440000045e+03
-1.005925117910000040e+03
-1.010598146769999971e+03
-1.007556668810000019e+03
-1.006785206610000046e+03
-1.009622847159999992e+03
-1.006757877089999965e+03
-1.008079604959999983e+03
-1.010686369779999950e+03
-1.005620072420000042e+03
-1.005374984229999995e+03
-1.006126874380000004e+03
-1.006485720570000012e+03
-1.007059567259999994e+03
-1.004553414569999973e+03
-1.007531057280000027e+03
-1.005970555679999961e+03
-1.005687534030000052e+03
-1.009134602510000036e+03
-1.002343424560000017e+03
-1.008223972419999996e+03
-1.009248529940000026e+03
-1.005189535180000007e+03
-1.009601777449999986e+03
-1.009682655240000031e+03
-1.003488113610000028e+03
-1.007362245880000046e+03
-1.008387617589999991e+03
-1.008459734410000010e+03
-1.008444326970000020e+03
-1.010366815159999987e+03
-1.007826820109999971e+03
-1.009284943259999977e+03
-1.005031041699999946e+03
-1.009214679580000052e+03
-1.004859864850000008e+03
-1.010461066579999965e+03
-1.009913542580000012e+03
-1.005688498600000003e+03
-1.006459872000000018e+03
-1.009720594720000008e+03
-1.009368208859999982e+03
-1.009561911300000020e+03
-1.007794635760000006e+03
-1.007410024170000042e+03
-1.005516117099999974e+03
-1.011724838370000043e+03
-1.006998008120000009e+03
-1.005707699329999969e+03
-1.010354546659999983e+03
-1.006179693739999948e+03
-1.010788428849999946e+03
-1.007285709910000037e+03
-1.007248208190000014e+03
-1.006920412530000021e+03
-1.008830735030000028e+03
-1.006077814220000050e+03
-1.006697495150000009e+03
-1.008948869469999977e+03
-1.007077053330000012e+03
-1.007370228529999963e+03
-1.008216673199999946e+03
-1.009186364980000008e+03
-1.007070639819999997e+03
-1.005468039439999984e+03
-1.009704786819999981e+03
-1.004373632349999980e+03
-1.007416061219999960e+03
-1.007184909489999995e+03
-1.007965700910000010e+03
-1.004280267600000002e+03
-1.005425812729999961e+03
-1.007378419720000011e+03
-1.007895265379999955e+03
-1.009774476489999984e+03
-1.005239669970000023e+03
-1.003930953499999987e+03
-1.007223811179999984e+03
-1.010102606179999952e+03
-1.007180757810000046e+03
-1.011785423290000040e+03
-1.004276014369999984e+03
-1.007825269240000011e+03
-1.001961871549999955e+03
-1.007258238119999987e+03
-1.010905948240000043e+03
-1.008930140550000033e+03
-1.009900399760000028e+03
-1.006709668490000013e+03
-1.005469906039999955e+03
-1.005698418280000055e+03
-1.008328461329999982e+03
-1.006606075349999969e+03
-1.004384763120000002e+03
-1.008734569800000031e+03
-1.006567808679999985e+03
-1.005726953709999975e+03
-1.007189530659999946e+03
-1.005770031890000041e+03
-1.010445195259999991e+03
-1.004663865800000053e+03
-1.002987634350000008e+03
-1.008088804890000006e+03
-1.007794043669999951e+03
-1.006414723279999976e+03
-1.007002491709999958e+03
-1.006654225969999970e+03
-1.006454958489999967e+03
-1.008307105650000040e+03
-1.007068048950000048e+03
-1.008714545059999978e+03
-1.004276839030000019e+03
-1.007610457419999989e+03
-1.005953428400000007e+03
-1.008115405089999967e+03
-1.010149970250000024e+03
-1.007367888259999972e+03
-1.005701018569999974e+03
-1.007786755259999950e+03
-1.005789517349999983e+03
-1.008938092500000039e+03
-1.002422711390000018e+03
-1.010205035410000050e+03
-1.004737370329999976e+03
-1.007274809300000015e+03
-1.005334089260000042e+03
-1.004803440079999973e+03
-1.007331277959999966e+03
-1.003727190479999990e+03
-1.008081073410000045e+03
-1.005933626290000007e+03
-1.005559343710000007e+03
-1.007589242720000016e+03
-1.009763804189999973e+03
-1.008520427120000022e+03
-1.008399572840000019e+03
-1.005153269829999999e+03
-1.008850300019999963e+03
-1.009596410620000029e+03
-1.007649978069999975e+03
-1.008378177820000019e+03
-1.005354997000000026e+03
-1.009549818889999983e+03
-1.003004440850000037e+03
-1.008784485349999954e+03
-1.008248286959999973e+03
-1.004607807910000020e+03
-1.009208961520000003e+03
-1.007895534369999950e+03
-1.008601231299999995e+03
-1.006508731349999948e+03
-1.005266888669999958e+03
-1.006466662700000029e+03
-1.007172634130000006e+03
-1.009241954289999967e+03
-1.010842214199999944e+03
-1.003617642169999954e+03
-1.008310141280000039e+03
-1.010236017850000053e+03
-1.006658453079999958e+03
-1.007838861810000026e+03
-1.006445114800000056e+03
-1.007231919889999972e+03
-1.003603488969999944e+03
-1.006103467150000029e+03
-1.008143070630000011e+03
-1.008333829059999971e+03
-1.007524502020000000e+03
-1.007350003150000020e+03
-1.008937040040000056e+03
-1.008089390109999954e+03
-1.010288254130000041e+03
-1.007971280149999984e+03
-1.006589620620000005e+03
-1.002805858990000047e+03
-1.006954653330000042e+03
-1.005966593149999994e+03
-1.004795427909999944e+03
-1.009049067319999949e+03
-1.007575157869999998e+03
-1.008018116510000027e+03
-1.009053842430000032e+03
-1.011611612160000050e+03
-1.008114152119999972e+03
-1.007988627749999978e+03
-1.005501151639999989e+03
-1.008730387210000004e+03
-1.005732802330000027e+03
-1.009165461800000003e+03
-1.007245902519999959e+03
-1.003997091719999958e+03
-1.007494115520000037e+03
-1.004721794749999958e+03
-1.009529229940000050e+03
-1.011987251069999957e+03
-1.007407022099999949e+03
-1.005148491120000017e+03
-1.010391909349999992e+03
-1.005828632419999963e+03
-1.005902914030000034e+03
-1.009451829119999957e+03
-1.004915243659999987e+03
-1.008796947169999953e+03
-1.006399575209999966e+03
-1.007087313890000019e+03
-1.006181507069999952e+03
-1.004745288080000023e+03
-1.008350679010000022e+03
-1.008210666820000029e+03
-1.011116682399999945e+03
-1.008344501670000000e+03
-1.007083778720000055e+03
-1.007254270980000001e+03
-1.004622194580000041e+03
-1.007933524100000000e+03
-1.011039091829999961e+03
-1.007363846589999980e+03
-1.007526290140000015e+03
-1.005324089650000019e+03
-1.007850093079999965e+03
-1.012028513999999973e+03
-1.008675021839999999e+03
-1.007025272319999999e+03
-1.008457415139999966e+03
-1.001878217210000003e+03
-1.005985627470000054e+03
-1.004633566679999944e+03
-1.002872111170000039e+03
-1.006305745559999991e+03
-1.007713485730000002e+03
-1.008148500249999984e+03
-1.003974732079999967e+03
-1.008480031850000046e+03
-1.008413588219999951e+03
-1.010959012580000035e+03
-1.005883475129999965e+03
-1.007411947830000031e+03
-1.007713790049999943e+03
-1.002939242239999999e+03
-1.009576766850000013e+03
-1.008235591689999978e+03
-1.009647768430000042e+03
-1.008537902919999965e+03
-1.003961140669999963e+03
-1.009077422540000043e+03
-1.007714818459999947e+03
-1.009253225459999953e+03
-1.008285751860000005e+03
-1.008108352319999995e+03
-1.005592732589999969e+03
-1.006199877710000010e+03
-1.008632811370000013e+03
-1.006007381059999943e+03
-1.005668249110000033e+03
-1.008485603220000030e+03
-1.007069225039999992e+03
-1.007210356860000047e+03
-1.006146722569999952e+03
-1.008303506139999968e+03
-1.008586051590000011e+03
-1.004825909059999958e+03
-1.008624889349999989e+03
-1.004451427459999991e+03
-1.007012747160000004e+03
-1.007753565900000012e+03
-1.005423479449999945e+03
-1.004826015740000003e+03
-1.009110695449999980e+03
-1.008531908300000055e+03
-1.008458348070000056e+03
-1.007920424020000041e+03
-1.009152349709999953e+03
-1.005667343039999992e+03
-1.004591065599999979e+03
-1.010643931650000013e+03
-1.007951261509999995e+03
-1.006977301829999988e+03
-1.007987120939999954e+03
-1.006395942969999965e+03
-1.003719090550000033e+03
-1.008798522700000035e+03
-1.004364865910000049e+03
-1.010406440819999943e+03
-1.009039468140000054e+03
-1.005005695220000007e+03
-1.007411438750000002e+03
-1.009320019679999973e+03
-1.010050347389999956e+03
-1.009041283840000006e+03
-1.008792272489999959e+03
-1.007084754350000026e+03
-1.007032856189999961e+03
-1.008174602449999952e+03
-1.006337908979999952e+03
-1.010504238709999981e+03
-1.002976524659999995e+03
-1.006982175630000029e+03
-1.007461018399999944e+03
-1.011065112050000039e+03
-1.008539460250000047e+03
-1.006219413959999997e+03
-1.008990007880000007e+03
-1.007027849429999947e+03
-1.007069941370000038e+03
-1.005390977170000042e+03
-1.005900134129999969e+03
-1.007253154020000011e+03
-1.008769170499999973e+03
-1.006662537889999953e+03
-1.007146205779999946e+03
-1.006824925399999984e+03
-1.007359792279999965e+03
-1.007101710420000018e+03
-1.002016518000000019e+03
-1.008231671369999958e+03
-1.007511700040000051e+03
-1.007477224549999960e+03
-1.008367689469999959e+03
-1.004462397880000026e+03
-1.008162825780000048e+03
-1.011389656680000030e+03
-1.008298280380000051e+03
-1.004125804489999950e+03
-1.005837867630000005e+03
-1.006500382779999995e+03
-1.005547178400000007e+03
-1.007952422090000027e+03
-1.011582689479999999e+03
-1.004543036460000053e+03
-1.010222510309999961e+03
-1.005567784250000045e+03
-1.007091546480000034e+03
-1.007181104710000000e+03
-1.007627291669999977e+03
-1.005359069119999958e+03
-1.010855565350000006e+03
-1.009721998589999998e+03
-1.002084632990000046e+03
-1.008985060709999971e+03
-1.009306711560000053e+03
-1.007301095430000032e+03
-1.007873582149999947e+03
-1.008699496800000020e+03
-1.003400502289999963e+03
-1.009018367239999975e+03
-1.009257948459999966e+03
-1.007701545770000052e+03
-1.009216079720000039e+03
-1.006676783519999958e+03
-1.005513113500000031e+03
-1.008500907159999997e+03
-1.008760629470000026e+03
-1.002295554929999980e+03
-1.008819459169999959e+03
-1.007416932060000022e+03
-1.009344358850000049e+03
-1.003445743010000001e+03
-1.008187936809999997e+03
-1.006728644639999970e+03
-1.008568057370000020e+03
-1.001014028309999958e+03
-1.008499952060000055e+03
-1.009762710960000049e+03
-1.004802274369999964e+03
-1.010764293859999952e+03
-1.005635661629999959e+03
-1.007765195289999951e+03
-1.007200789330000021e+03
-1.005536163729999998e+03
-1.009985347950000005e+03
-1.007241498679999950e+03
-1.004345551070000056e+03
-1.008657225450000055e+03
-1.009609100689999991e+03
-1.007973356259999946e+03
-1.007865651400000047e+03
-1.007039329189999989e+03
-1.011383893540000031e+03
-1.007577303750000056e+03
-1.010136452250000048e+03
-1.010014695500000016e+03
-1.005454732130000025e+03
-1.007677613840000049e+03
-1.004342989999999986e+03
-1.009114279430000011e+03
-1.004890940099999966e+03
-1.007275887699999998e+03
-1.007548992979999980e+03
-1.004735076749999962e+03
-1.009656392650000043e+03
-1.003433081369999968e+03
-1.005380243899999982e+03
-1.008420016540000006e+03
-1.006752778749999948e+03
-1.007111343799999986e+03
-1.006606722740000009e+03
-1.006348217869999985e+03
-1.010079313490000004e+03
-1.008058513629999993e+03
-1.009024815119999971e+03
-1.009437897430000021e+03
-1.002828704160000029e+03
-1.006199968269999999e+03
-1.005134417190000022e+03
-1.007659461879999981e+03
-1.003855633379999972e+03
-1.007103416870000046e+03
-1.010175425840000003e+03
-1.006130784769999991e+03
-1.005497357739999984e+03
-1.006717669500000056e+03
-1.002476889110000002e+03
-1.008727100919999998e+03
-1.006723934149999991e+03
-1.006311537250000015e+03
-1.009225024250000047e+03
-1.008463123979999978e+03
-1.006032430399999953e+03
-1.010969598610000048e+03
-1.005834350940000036e+03
-1.009145707979999997e+03
-1.009961159500000008e+03
-1.009283887039999968e+03
-1.005642835910000031e+03
-1.002650616870000022e+03
-1.008824610509999957e+03
-1.005619119769999998e+03
-1.006822748010000055e+03
-1.007974042820000022e+03
-1.003307485710000037e+03
-1.009587286110000036e+03
-1.006702064159999964e+03
-1.007243466099999978e+03
-1.003741747669999995e+03
-1.010922010290000003e+03
-1.005898888120000038e+03
-1.009585604510000053e+03
-1.006914305870000021e+03
-1.011319814999999949e+03
-1.006517793480000023e+03
-1.009331930029999967e+03
-1.007834225439999955e+03
-1.007695909850000021e+03
-1.007196750859999952e+03
-1.009374205050000000e+03
-1.008858273199999985e+03
-1.004540629670000044e+03
-1.007314792340000054e+03
-1.006976650090000021e+03
-1.004190643529999988e+03
-1.006613239349999958e+03
-1.006189052779999997e+03
-1.009943907050000007e+03
-1.008633338180000010e+03
-1.009350010460000021e+03
-1.008829597440000043e+03
-1.008624432159999969e+03
-1.004195255419999967e+03
-1.008645136979999961e+03
-1.011334137280000050e+03
-1.007767169330000002e+03
-1.006465450700000019e+03
-1.008958103319999964e+03
-1.007188676959999952e+03
-1.004016544670000030e+03
-1.005938309699999991e+03
-1.009529916889999981e+03
-1.004330023289999986e+03
-1.010080539550000026e+03
-1.002792018460000008e+03
-1.003364854590000050e+03
-1.005862250979999999e+03
-1.009966680880000013e+03
-1.003770119519999980e+03
-1.007514611070000001e+03
-1.006858352559999958e+03
-1.009516454859999953e+03
-1.004135532919999946e+03
-1.010177020760000005e+03
-1.003864897570000039e+03
-1.006058079870000029e+03
-1.005737702330000047e+03
-1.003434696450000047e+03
-1.006872601720000034e+03
-1.004552311479999958e+03
-1.004346399760000054e+03
-1.010976328599999988e+03
-1.007122812429999954e+03
-1.007561459509999963e+03
-1.006471437830000013e+03
-1.005950004919999969e+03
-1.004987683589999961e+03
-1.007351415630000020e+03
-1.004127476559999991e+03
-1.007733178719999955e+03
-1.009020427349999977e+03
-1.005556231249999996e+03
-1.004650048179999999e+03
-1.002339575510000031e+03
-1.011916483989999961e+03
-1.003525767549999955e+03
-1.003824560850000012e+03
-1.004342760310000017e+03
-1.005515853539999966e+03
-1.009226209720000043e+03
-1.010937569209999992e+03
-1.003865323379999950e+03
-1.009491721450000000e+03
-1.010203641390000030e+03
-1.009651918519999981e+03
-1.006010388919999968e+03
-1.010163623840000014e+03
-1.006206304700000032e+03
-1.006940852059999997e+03
-1.006391941979999956e+03
-1.005307037960000002e+03
-1.007618305350000014e+03
-1.004842891300000019e+03
-1.008974615180000001e+03
-1.005161100889999943e+03
-1.005118397810000033e+03
-1.007377635820000023e+03
-1.011448402289999990e+03
-1.009765318460000003e+03
-1.009279564319999963e+03
-1.005978705419999983e+03
-1.008314729690000036e+03
-1.008213886150000008e+03
-1.009261069880000036e+03
-1.007337661339999954e+03
-1.006370682849999980e+03
-1.008447203650000006e+03
-1.005315687219999973e+03
-1.006953562990000023e+03
-1.007071793210000010e+03
-1.006262848480000002e+03
-1.006700775450000037e+03
-1.005136202529999991e+03
-1.007292491759999962e+03
-1.007494678189999945e+03
-1.010877868319999948e+03
-1.006341652100000033e+03
-1.004987211249999973e+03
-1.012689063659999988e+03
-1.013031701790000056e+03
-1.011734500069999967e+03
-1.006936170299999958e+03
-1.004256751959999974e+03
-1.008678784299999961e+03
-1.010052842570000053e+03
-1.002790268110000056e+03
-1.007424665430000005e+03
-1.007257550339999966e+03
-1.005648221929999977e+03
-1.008834481080000046e+03
-1.012183796260000008e+03
-1.006853144069999985e+03
-1.007539297700000020e+03
-1.009724971090000054e+03
-1.007555148069999973e+03
-1.004817111289999957e+03
-1.007840071559999956e+03
-1.008445870430000014e+03
-1.002448285710000050e+03
-1.006459713409999949e+03
-1.007091527179999957e+03
-1.009132085070000016e+03
-1.008675682140000049e+03
-1.008162779569999998e+03
-1.006075321819999999e+03
-1.006002449680000041e+03
-1.011866637139999966e+03
-1.004571589900000049e+03
-1.005926154679999968e+03
-1.007723357480000004e+03
-1.004580977630000007e+03
-1.006426031979999948e+03
-1.007351599149999970e+03
-1.005942263000000025e+03
-1.005740893639999967e+03
-1.006638448560000029e+03
-1.007288591859999997e+03
-1.012936652129999970e+03
-1.007639919159999977e+03
-1.005711374259999957e+03
-1.006515331039999978e+03
-1.006768487150000055e+03
-1.006275313289999985e+03
-1.003286475249999967e+03
-1.010497396510000044e+03
