-1.697403372820455864e-02 7.866498509825216312e-03 -2.902164430334945675e-03 7.866498509825216312e-03 -1.264904863602413915e-02 5.669225154131021490e-04 -2.902164430334945675e-03 5.669225154131021490e-04 -3.732697083679727308e-03
-4.121493170149247501e-03 1.039510861897604936e-03 1.889879031244443572e-03 1.039510861897604936e-03 -5.305095511726992501e-04 -2.208870079650084961e-04 1.889879031244443572e-03 -2.208870079650084961e-04 -3.868955469406884767e-03
-1.561815949324330682e-02 -8.022629860609184482e-03 -8.515596734389696901e-03 -8.022629860609184482e-03 -8.642280645117749599e-03 -2.185907567575960577e-03 -8.515596734389696901e-03 -2.185907567575960577e-03 -1.501416241362245850e-02
-1.595524467660488360e-02 3.005286644112788630e-05 -9.440301277425806187e-03 3.005286644112788630e-05 -4.278879064267519447e-03 -8.590394979754282373e-03 -9.440301277425806187e-03 -8.590394979754282373e-03 -1.874006249386409723e-02
-1.601757238673595304e-02 2.931817840192016845e-03 6.969618614472295436e-03 2.931817840192016845e-03 -1.453659958436462514e-02 6.210800900983912305e-03 6.969618614472295436e-03 6.210800900983912305e-03 7.388948163585636790e-04
-4.893049803763557457e-03 5.816012965753544588e-03 1.804376597728968648e-03 5.816012965753544588e-03 8.239453646133244880e-03 -1.244182429153568728e-03 1.804376597728968648e-03 -1.244182429153568728e-03 1.223929980341902611e-02
-8.053737542092589616e-03 6.161305733615657972e-04 1.084676918536146492e-02 6.161305733615657972e-04 -5.679754580026388430e-03 4.319436390567508847e-04 1.084676918536146492e-02 4.319436390567508847e-04 -3.364928641455308244e-03
-3.894464517204370303e-03 8.936592766439648006e-03 4.925980005911718106e-03 8.936592766439648006e-03 -6.882992709314162197e-03 -2.958743710561077215e-03 4.925980005911718106e-03 -2.958743710561077215e-03 -2.339042369828593648e-02
-1.199907660018203343e-02 -2.677800901786819843e-03 3.803581902822383582e-03 -2.677800901786819843e-03 -7.842175348761649609e-03 8.061327217189662164e-03 3.803581902822383582e-03 8.061327217189662164e-03 -6.250240997150368141e-03
2.673650298218107832e-03 -3.270669370636219118e-03 -1.022692491406999860e-02 -3.270669370636219118e-03 -4.426752898477945633e-03 4.197670789030652147e-03 -1.022692491406999860e-02 4.197670789030652147e-03 8.715805622620654766e-03
-1.467282052103702737e-02 3.674282799770585764e-03 -1.689395516611947668e-03 3.674282799770585764e-03 -7.720896584936611830e-03 -4.454683651816273779e-03 -1.689395516611947668e-03 -4.454683651816273779e-03 -1.053246551030936201e-02
-1.044836117483808648e-02 2.724325110811153753e-03 -6.136888949915202986e-03 2.724325110811153753e-03 2.405465134097155983e-03 -5.779150612856077777e-03 -6.136888949915202986e-03 -5.779150612856077777e-03 -1.469609510856744600e-02
-8.889974934778426680e-03 -5.054024565629213449e-03 5.998446035993985730e-03 -5.054024565629213449e-03 -1.566362888722536715e-03 8.112345312784631501e-03 5.998446035993985730e-03 8.112345312784631501e-03 -1.650879163796122005e-05
3.905262327992147387e-03 -2.851277406431619414e-03 -2.146367607263490081e-03 -2.851277406431619414e-03 9.264346893658030949e-03 -2.988197392126120799e-03 -2.146367607263490081e-03 -2.988197392126120799e-03 1.057144997630962702e-02
-7.426397218340935989e-04 -1.252605345718948125e-02 -7.066954949290444286e-03 -1.252605345718948125e-02 -3.895962479394581533e-03 -6.888478995835813079e-03 -7.066954949290444286e-03 -6.888478995835813079e-03 -1.426496910720618681e-03
2.346938503023748325e-03 1.149038736491342014e-02 -6.103578015710363694e-03 1.149038736491342014e-02 3.945495095817591093e-03 -2.002713033222160849e-03 -6.103578015710363694e-03 -2.002713033222160849e-03 6.999165918674226869e-03
2.578486008575765591e-03 -6.129168203126485193e-03 -2.825050585084657763e-03 -6.129168203126485193e-03 3.494084189797210232e-03 4.140461116382806832e-03 -2.825050585084657763e-03 4.140461116382806832e-03 1.103405190819271636e-03
3.177433707313774731e-03 -5.534845462650756290e-03 1.944367405913404465e-03 -5.534845462650756290e-03 5.797113676120370200e-03 5.252429657722789726e-03 1.944367405913404465e-03 5.252429657722789726e-03 9.215588224366630995e-04
-2.117388280392014290e-03 3.301333904971684007e-03 -6.952485671921746109e-03 3.301333904971684007e-03 2.004754006706324816e-03 -4.273623713583525759e-04 -6.952485671921746109e-03 -4.273623713583525759e-04 1.276351167188371008e-03
3.274857423259686789e-04 9.829009982767563172e-03 1.368201215484868977e-03 9.829009982767563172e-03 -9.771606823336815781e-03 -1.626225202748882810e-03 1.368201215484868977e-03 -1.626225202748882810e-03 5.145007044157212661e-03
4.030816525568415611e-03 -1.864838096631399669e-03 -4.752778127668457440e-03 -1.864838096631399669e-03 -4.016223877232100517e-03 -2.735029298962043422e-03 -4.752778127668457440e-03 -2.735029298962043422e-03 3.038628785863257530e-03
-2.989108652458499424e-03 -1.139844993548915983e-02 6.600957636442875143e-03 -1.139844993548915983e-02 -2.045729514117748844e-03 1.312189912589192646e-03 6.600957636442875143e-03 1.312189912589192646e-03 -5.550911107140778407e-03
-2.581886382747547101e-02 -4.809245060730323734e-03 3.167104009710438196e-03 -4.809245060730323734e-03 -1.801715218237692068e-02 2.963905438608183053e-04 3.167104009710438196e-03 2.963905438608183053e-04 -1.328043969919848709e-02
-7.011099684122915239e-03 1.647864514888320100e-03 4.603112980338902555e-05 1.647864514888320100e-03 1.147513935811888880e-03 3.467782470340738128e-04 4.603112980338902555e-05 3.467782470340738128e-04 1.286581000645693577e-02
-1.319267783937944256e-02 6.435495229515710318e-04 9.403569996219982019e-03 6.435495229515710318e-04 -9.862083739625617917e-04 2.033321393975492681e-03 9.403569996219982019e-03 2.033321393975492681e-03 -6.257980468466464198e-03
-2.554431232404611417e-03 8.873147826175046410e-03 -7.679365583212984696e-04 8.873147826175046410e-03 -1.338847398065840053e-03 8.289223439903037468e-04 -7.679365583212984696e-04 8.289223439903037468e-04 5.337307940325677034e-03
-6.964182260023651233e-03 -3.950525752173052879e-03 -4.518852607139478951e-04 -3.950525752173052879e-03 -1.138551128707120498e-03 -5.328881903005735013e-03 -4.518852607139478951e-04 -5.328881903005735013e-03 -1.096015244014226023e-03
-1.218317615335908540e-03 -4.100459284395020429e-03 -1.334085126602791013e-03 -4.100459284395020429e-03 -9.143711005272959699e-03 -2.898744083333962100e-03 -1.334085126602791013e-03 -2.898744083333962100e-03 -4.549985254659385039e-03
-3.456909761443449289e-03 -6.424067026306217940e-03 6.524187074194511297e-04 -6.424067026306217940e-03 -1.574233431730275522e-04 3.772280734556078541e-03 6.524187074194511297e-04 3.772280734556078541e-03 -3.949633216368052084e-03
6.313473726104692650e-04 2.664119513782884242e-03 2.103819239552344369e-03 2.664119513782884242e-03 -1.896420132808369181e-04 1.672324989152656691e-03 2.103819239552344369e-03 1.672324989152656691e-03 -3.891699528661603409e-03
-3.460292659389678179e-04 3.051049389023765147e-03 1.797573352781756074e-03 3.051049389023765147e-03 -1.145753830238389762e-03 1.462011097646894354e-04 1.797573352781756074e-03 1.462011097646894354e-04 1.045327948402927944e-04
-6.735424709050904200e-03 8.497789708853552629e-03 -5.791770944308613847e-03 8.497789708853552629e-03 -1.165039469286456401e-02 -5.207534482580311423e-03 -5.791770944308613847e-03 -5.207534482580311423e-03 5.408186517959207365e-03
-4.042694117434970924e-03 -3.707225484936997432e-03 4.993575549745034314e-03 -3.707225484936997432e-03 -2.552902062668770469e-03 2.327876934153301578e-03 4.993575549745034314e-03 2.327876934153301578e-03 -6.586102844723272162e-03
-3.706114496312590354e-03 -7.815492897248498862e-04 2.054205483510697979e-03 -7.815492897248498862e-04 -9.307787797174178757e-03 3.550139183256768166e-03 2.054205483510697979e-03 3.550139183256768166e-03 -3.705964700093569882e-03
-1.390756157013073313e-02 -1.153736096259481807e-02 4.820148977173242290e-03 -1.153736096259481807e-02 -1.340012063668729984e-02 -6.495813173708244424e-03 4.820148977173242290e-03 -6.495813173708244424e-03 3.379371493572601564e-03
-2.885031487784395915e-03 1.585836397195292255e-03 6.772455582694769313e-03 1.585836397195292255e-03 4.862260439245575869e-03 5.817592067562393082e-03 6.772455582694769313e-03 5.817592067562393082e-03 -1.343484839346371364e-04
7.769106001424934405e-03 -1.917522675162980491e-03 2.972581136293160316e-04 -1.917522675162980491e-03 -2.063318086834487104e-04 -9.998460714026168733e-04 2.972581136293160316e-04 -9.998460714026168733e-04 2.611491108833436693e-03
4.949903710391228770e-03 1.321227617803471480e-03 1.956257480798211882e-03 1.321227617803471480e-03 1.075986241229266510e-03 4.848429255022618928e-03 1.956257480798211882e-03 4.848429255022618928e-03 -1.341593662081228683e-03
-4.085248726655243447e-03 3.267710895310550583e-03 -7.991640767799176176e-03 3.267710895310550583e-03 -1.024961904125171012e-03 -3.397409454946404873e-03 -7.991640767799176176e-03 -3.397409454946404873e-03 -1.016784278868438675e-02
5.860034329618398624e-03 -3.088679447543715186e-03 -4.425854121163818380e-05 -3.088679447543715186e-03 1.156756986676409429e-02 -1.829142905940473645e-03 -4.425854121163818380e-05 -1.829142905940473645e-03 1.294310485547187604e-02
-2.176701341615282573e-03 1.650267495901784880e-03 2.179572435813189202e-03 1.650267495901784880e-03 5.473716122271854966e-03 6.560749834653935644e-03 2.179572435813189202e-03 6.560749834653935644e-03 -6.624881340922384940e-03
3.034434491730663374e-04 -7.244900374469375945e-03 1.167386900868701109e-03 -7.244900374469375945e-03 7.962549093763433838e-03 7.521024738198453172e-03 1.167386900868701109e-03 7.521024738198453172e-03 -5.189365449514865905e-03
1.951201858406246756e-03 1.839497569580313954e-03 -5.251974027556600630e-03 1.839497569580313954e-03 -1.340342863652401774e-02 -4.403908975077212330e-03 -5.251974027556600630e-03 -4.403908975077212330e-03 -5.129640448689289263e-03
-1.026985401383782338e-02 2.845709980291331702e-03 -4.229446311990524114e-03 2.845709980291331702e-03 -9.275768855358397166e-03 -5.562526555624048435e-03 -4.229446311990524114e-03 -5.562526555624048435e-03 -1.001435159626066704e-02
6.487674245808093196e-03 7.926541827616213898e-03 6.799562456828480957e-04 7.926541827616213898e-03 2.109411631729135421e-03 5.800253155210688925e-03 6.799562456828480957e-04 5.800253155210688925e-03 1.233216097619391736e-02
-1.462560350449972112e-03 -8.307323816368099778e-04 -1.711977296629392867e-03 -8.307323816368099778e-04 -3.802745540599514976e-03 9.310583993262572982e-04 -1.711977296629392867e-03 9.310583993262572982e-04 -4.098443276947361102e-03
5.012543495978592778e-03 1.006274825802276531e-03 -2.323170836272385378e-03 1.006274825802276531e-03 -1.198980795913009642e-02 -2.417991842912803335e-03 -2.323170836272385378e-03 -2.417991842912803335e-03 -7.018202521508171794e-04
-1.194013178799719016e-03 -9.890545021239646479e-04 1.400925447831875012e-03 -9.890545021239646479e-04 -4.770372941894322240e-03 -4.816547626407607224e-03 1.400925447831875012e-03 -4.816547626407607224e-03 -6.150988519030573323e-03
-1.154689174703004209e-02 1.184576017001383709e-03 -3.739799921064982345e-03 1.184576017001383709e-03 -1.903106037384015223e-02 6.416564732336905129e-03 -3.739799921064982345e-03 6.416564732336905129e-03 -1.863135412941858970e-02
-1.226159447401668247e-02 1.232130075031488085e-03 2.394941949710916937e-03 1.232130075031488085e-03 1.827701117332394549e-04 -1.974064506334357021e-03 2.394941949710916937e-03 -1.974064506334357021e-03 -1.953609832627012377e-02
-1.886688995930204879e-02 4.288715682649910793e-03 -5.782670824003076880e-03 4.288715682649910793e-03 -7.739546214204751085e-03 1.906050781389607160e-03 -5.782670824003076880e-03 1.906050781389607160e-03 -1.373677515591919043e-02
-7.003647322226611710e-03 -6.149471832312983395e-03 3.390731040181709649e-03 -6.149471832312983395e-03 3.811546068467010565e-03 -3.169581888833413862e-03 3.390731040181709649e-03 -3.169581888833413862e-03 4.373007263394964629e-03
-1.688845639657957087e-02 -3.569425446455746706e-03 2.230216040860606111e-04 -3.569425446455746706e-03 -7.047506406854192086e-03 6.011771657977746895e-03 2.230216040860606111e-04 6.011771657977746895e-03 -9.345018399110073190e-03
4.795832057618800229e-03 -7.129157829238997462e-03 -7.192590286485349123e-04 -7.129157829238997462e-03 4.762645953596478720e-04 3.073980693552260356e-03 -7.192590286485349123e-04 3.073980693552260356e-03 1.146758713207656974e-02
1.213034802011760810e-02 3.321419081338775926e-03 -2.872748197824657752e-03 3.321419081338775926e-03 9.236859287467640012e-03 3.396872685161578514e-03 -2.872748197824657752e-03 3.396872685161578514e-03 -5.006433058544353630e-03
-2.078418794013649554e-02 2.680859241258503039e-03 5.790934582085745241e-04 2.680859241258503039e-03 -1.737046318033503081e-02 4.824786418453772679e-03 5.790934582085745241e-04 4.824786418453772679e-03 -6.669670410409724373e-03
-1.111793779084458865e-03 -7.551040155584824937e-04 -1.036995533719873956e-02 -7.551040155584824937e-04 -6.485121468575607943e-03 -1.442849664630432784e-04 -1.036995533719873956e-02 -1.442849664630432784e-04 9.035427063448009388e-03
-7.493200090515264762e-03 2.107314484662838397e-03 -7.173772136470812216e-03 2.107314484662838397e-03 -1.336295869135178949e-02 -2.739423321386665056e-03 -7.173772136470812216e-03 -2.739423321386665056e-03 -1.390358572881754797e-04
6.607261560660017451e-04 2.992940939061791792e-03 3.311083142226313013e-03 2.992940939061791792e-03 -6.249404634927500403e-03 -1.047961865254050731e-03 3.311083142226313013e-03 -1.047961865254050731e-03 -6.733283871420726006e-03
-5.014665609081393575e-03 -4.105315178494958403e-03 -4.419987102585488069e-03 -4.105315178494958403e-03 -1.593336818711866068e-02 -1.662282400969110297e-03 -4.419987102585488069e-03 -1.662282400969110297e-03 -1.430586971650809995e-02
-4.780964782880947096e-03 -1.703245425362282439e-03 3.300628614440458911e-03 -1.703245425362282439e-03 2.266229548516952158e-04 8.093040325058276432e-03 3.300628614440458911e-03 8.093040325058276432e-03 -1.478782032668142813e-03
9.630211675599056149e-04 5.441896908748102696e-03 -1.308757082569956967e-03 5.441896908748102696e-03 -2.442134000211719849e-03 5.391727658394252767e-04 -1.308757082569956967e-03 5.391727658394252767e-04 -6.769041477202910597e-04
-1.245444462298822205e-02 -2.767322867179363918e-03 -2.203758283675986453e-03 -2.767322867179363918e-03 -1.774366173549896813e-02 -1.453585060326952061e-03 -2.203758283675986453e-03 -1.453585060326952061e-03 6.260483313625942988e-04
-1.798248059918263961e-02 1.622005942579785639e-03 6.569606536103562988e-03 1.622005942579785639e-03 -7.682086881191869769e-03 3.057777735861467051e-03 6.569606536103562988e-03 3.057777735861467051e-03 -1.378732513832971705e-02
-1.750418751335707738e-03 -4.341119393270827416e-03 5.912263277983790567e-03 -4.341119393270827416e-03 -1.911718071675909099e-03 7.539306118428163069e-04 5.912263277983790567e-03 7.539306118428163069e-04 1.015355597429524158e-02
-7.143875307757830556e-03 2.457213486259854189e-03 4.708600726075456121e-03 2.457213486259854189e-03 4.510776094330586072e-03 -1.629302266747943402e-03 4.708600726075456121e-03 -1.629302266747943402e-03 -1.205373973710651726e-02
-7.839897197930701528e-03 -4.688652862909133655e-03 -4.035578797031464000e-03 -4.688652862909133655e-03 -6.683532802178310380e-04 1.536877999611863848e-03 -4.035578797031464000e-03 1.536877999611863848e-03 -1.885678495602724231e-03
-9.438534930343181126e-03 2.328001764335818711e-03 -9.785419283032394458e-03 2.328001764335818711e-03 3.329064930017982833e-03 4.189962525260186241e-03 -9.785419283032394458e-03 4.189962525260186241e-03 1.915668946952593307e-03
-5.894687188285303164e-03 1.536784376974975781e-04 -8.684997533575294698e-04 1.536784376974975781e-04 -1.472720903155997664e-02 7.817608768842174150e-03 -8.684997533575294698e-04 7.817608768842174150e-03 -3.522919961958790626e-03
-1.857691568682263679e-03 3.099190148911702344e-03 2.129072385475667961e-03 3.099190148911702344e-03 -5.826423802975518387e-03 -9.118095851820333343e-04 2.129072385475667961e-03 -9.118095851820333343e-04 -6.433560361686687171e-03
-6.568620377661673476e-03 -8.238249034871948651e-03 -3.918787678267936572e-03 -8.238249034871948651e-03 -4.192658857202568624e-03 4.679652606749609180e-03 -3.918787678267936572e-03 4.679652606749609180e-03 -5.853593092200487513e-03
-9.789594852637610242e-03 -1.373381668059352266e-04 8.008817400913607540e-03 -1.373381668059352266e-04 3.852995930572001085e-03 -3.528300142825302205e-03 8.008817400913607540e-03 -3.528300142825302205e-03 -6.185678826752232656e-03
-4.016848028144687915e-03 3.298706229629687001e-03 -2.701537360992553941e-03 3.298706229629687001e-03 5.474926975042276704e-04 -5.085225869749502962e-03 -2.701537360992553941e-03 -5.085225869749502962e-03 -5.104343612202084067e-03
-1.040457074681088757e-02 -2.737544627139774749e-03 -1.604879241538362256e-03 -2.737544627139774749e-03 -2.357786245884533824e-03 -2.384325142687789608e-03 -1.604879241538362256e-03 -2.384325142687789608e-03 3.452802848438618448e-03
4.870274536963209965e-03 -7.596902764641816005e-03 4.193270525096904136e-03 -7.596902764641816005e-03 7.259805098261985605e-03 -9.792004075160200965e-03 4.193270525096904136e-03 -9.792004075160200965e-03 1.094111583730831725e-03
-5.220410715907009003e-03 -7.506038874787205814e-04 5.408692080198403140e-03 -7.506038874787205814e-04 -2.852307255437390530e-04 -3.395362239953114529e-03 5.408692080198403140e-03 -3.395362239953114529e-03 -7.382425786549088632e-03
-3.749112252680800519e-03 1.226169433816269626e-03 4.301879025396399166e-03 1.226169433816269626e-03 -1.418640723183869565e-02 -3.988917274806361504e-03 4.301879025396399166e-03 -3.988917274806361504e-03 -2.094003218150067291e-02
-1.764385376306697173e-02 -1.479225179816080456e-03 3.360915351087365253e-03 -1.479225179816080456e-03 -2.008948300838918431e-03 2.097821149282370033e-03 3.360915351087365253e-03 2.097821149282370033e-03 -9.621186453403028985e-03
2.795709250683880726e-03 2.294497343348077777e-03 7.536073016700957361e-03 2.294497343348077777e-03 7.452418069886743678e-03 -3.875303084187907594e-03 7.536073016700957361e-03 -3.875303084187907594e-03 -2.375992728004735002e-03
-3.972951494462351879e-03 1.059009336406864250e-03 -2.587517472280918916e-03 1.059009336406864250e-03 -1.272300427765672790e-03 -2.122899532950169380e-03 -2.587517472280918916e-03 -2.122899532950169380e-03 1.100271953238078420e-03
5.406732246332876003e-03 -1.362221849742272905e-03 4.457042942265857823e-03 -1.362221849742272905e-03 5.937397835233722103e-03 2.768215402984365147e-03 4.457042942265857823e-03 2.768215402984365147e-03 -1.071178406749598820e-02
1.133289536514000976e-03 3.165231556972672965e-03 -2.621858255491528889e-03 3.165231556972672965e-03 -7.979469825003703692e-03 -8.536636861653049699e-04 -2.621858255491528889e-03 -8.536636861653049699e-04 2.823396585166298815e-03
-4.272075819320306223e-03 -3.477182183084318208e-03 -6.166785778628184646e-03 -3.477182183084318208e-03 -8.909067711194504227e-04 2.718014945084885718e-03 -6.166785778628184646e-03 2.718014945084885718e-03 5.915814696676418086e-03
-8.506278161264754084e-03 6.882699358385245460e-04 2.061957437845045055e-03 6.882699358385245460e-04 3.004213104543136670e-03 -1.794433873691436888e-05 2.061957437845045055e-03 -1.794433873691436888e-05 -5.587174275162160725e-03
5.934545465563194171e-03 1.468614614302078854e-03 6.161174661924014896e-03 1.468614614302078854e-03 1.187772293824748346e-02 6.766026828295110089e-03 6.161174661924014896e-03 6.766026828295110089e-03 -4.777375915133563050e-04
-7.493274988624775215e-03 -6.611474579319989546e-03 2.693204946309500202e-03 -6.611474579319989546e-03 5.790435261355674976e-03 -8.308135212554463743e-04 2.693204946309500202e-03 -8.308135212554463743e-04 6.524149625139755854e-03
-1.679682480110247789e-02 -7.715073256922162608e-03 -8.380287058049674161e-04 -7.715073256922162608e-03 -1.544017037750049573e-02 -8.071675639320376530e-03 -8.380287058049674161e-04 -8.071675639320376530e-03 -2.537403771358289276e-02
-1.805471982580561172e-02 7.053136248085739232e-03 -8.490212516774729365e-03 7.053136248085739232e-03 3.145208795696839612e-03 5.551897265582668786e-03 -8.490212516774729365e-03 5.551897265582668786e-03 4.391944002082894677e-03
-4.973246954522031471e-03 3.020185126396272238e-03 4.776420964237303689e-03 3.020185126396272238e-03 1.259299364256457861e-03 -1.514277495067040818e-03 4.776420964237303689e-03 -1.514277495067040818e-03 -2.505364856713305707e-02
-3.144921686277048819e-03 5.747137912549422564e-03 -8.436423191127868926e-03 5.747137912549422564e-03 -4.276900505874614913e-03 -3.108452548454513405e-03 -8.436423191127868926e-03 -3.108452548454513405e-03 -3.005492613913942918e-03
8.297736858350742914e-03 -8.053063459106994670e-03 7.694282790023846243e-04 -8.053063459106994670e-03 -1.019453772321578938e-02 4.933494782899281936e-03 7.694282790023846243e-04 4.933494782899281936e-03 -1.198182506895809074e-03
-1.997712336110503417e-02 -1.283435280046248649e-03 -2.146005599734188835e-03 -1.283435280046248649e-03 -7.368738157036027088e-03 -3.407863982732258305e-06 -2.146005599734188835e-03 -3.407863982732258305e-06 -1.294435939880617635e-02
4.455232904619351592e-03 -5.628093608991451479e-04 -5.969622746850657656e-03 -5.628093608991451479e-04 4.165757952870012028e-03 9.708979520767701491e-04 -5.969622746850657656e-03 9.708979520767701491e-04 -5.889344456473546811e-03
-8.180870841477705683e-04 -3.195103419649150418e-03 -4.631368292151777019e-03 -3.195103419649150418e-03 -5.454891730748190164e-03 -7.825192202430121188e-03 -4.631368292151777019e-03 -7.825192202430121188e-03 1.995572746782150585e-03
-4.438861426182159550e-03 -5.951865653387520064e-03 1.086780307111569199e-02 -5.951865653387520064e-03 -5.958331856841935382e-04 -3.885763853482888074e-03 1.086780307111569199e-02 -3.885763853482888074e-03 -4.341119393270827416e-03
3.239068609931872698e-03 -4.467940617199649134e-03 -9.065167854432844199e-04 -4.467940617199649134e-03 6.251245880119636784e-04 -5.403318140841017504e-03 -9.065167854432844199e-04 -5.403318140841017504e-03 -1.925699052117887814e-03
5.440779678614569674e-03 9.498166308531869051e-03 -3.050974490914254477e-04 9.498166308531869051e-03 -1.855034558247374912e-02 4.423856838243535338e-04 -3.050974490914254477e-04 4.423856838243535338e-04 4.188171212141058274e-03
5.207553207107689687e-03 3.594485105596168602e-05 1.300549498069420362e-03 3.594485105596168602e-05 -8.878515524023305669e-03 2.724268937229021564e-03 1.300549498069420362e-03 2.724268937229021564e-03 -2.419196454174099131e-03
-7.248788834654801803e-03 6.130098187986241431e-04 -2.009453863078114856e-04 6.130098187986241431e-04 -2.164044809409816292e-02 -2.083478161311090506e-03 -2.009453863078114856e-04 -2.083478161311090506e-03 -9.060954835772874055e-03
7.020630468558139263e-03 -1.170507655431642655e-03 9.143623624145197359e-03 -1.170507655431642655e-03 6.997855201757791771e-03 -3.893428426689472810e-03 9.143623624145197359e-03 -3.893428426689472810e-03 -4.650423619513098365e-04
1.971443072501485633e-04 -1.294651271945460730e-02 1.496270741238867443e-03 -1.294651271945460730e-02 -4.994786402515455186e-03 -1.063706072024091231e-02 1.496270741238867443e-03 -1.063706072024091231e-02 1.489633520434403141e-02
-7.468090499301836133e-03 -4.018913967665355656e-03 -5.393587628113765894e-03 -4.018913967665355656e-03 -1.565219444250675121e-02 -3.438384962357828034e-03 -5.393587628113765894e-03 -3.438384962357828034e-03 -1.406811190937583018e-03
-1.226970843588032906e-02 1.173815655268360767e-03 -8.580439772698497669e-03 1.173815655268360767e-03 -2.947477786588858280e-03 -3.483461141264957393e-03 -8.580439772698497669e-03 -3.483461141264957393e-03 -1.031463684181603731e-02
-7.007055186209342965e-03 6.443016248012399874e-03 -1.092526240412857504e-03 6.443016248012399874e-03 3.587519581411683072e-03 -5.190064498536964190e-04 -1.092526240412857504e-03 -5.190064498536964190e-04 -1.048220263731862271e-02
3.800898053898253519e-03 -7.723436879150845195e-03 4.323193779061290654e-03 -7.723436879150845195e-03 -1.158074569252883369e-03 4.616844300415846652e-04 4.323193779061290654e-03 4.616844300415846652e-04 -5.930419828030985066e-03
-3.202930272093007947e-03 7.308694839245030370e-03 -1.035728507367319681e-03 7.308694839245030370e-03 -4.648120502645647703e-03 7.548668382116989223e-04 -1.035728507367319681e-03 7.548668382116989223e-04 -2.047876593257052374e-02
-9.157542189495915719e-05 3.873418148431891019e-04 8.357243406356913706e-03 3.873418148431891019e-04 -8.626208759118601105e-03 8.868248241511228133e-03 8.357243406356913706e-03 8.868248241511228133e-03 -1.596901968724570922e-02
-2.124697711729335928e-02 1.914052396088989369e-03 -1.022484025002195346e-03 1.914052396088989369e-03 -2.993902131467177530e-03 -8.686882469331311599e-03 -1.022484025002195346e-03 -8.686882469331311599e-03 1.011330448194242091e-03
-9.522951341270752962e-03 2.384531112488943571e-03 -1.522653600313976377e-03 2.384531112488943571e-03 -8.192629844670867856e-03 -7.413664539724132939e-05 -1.522653600313976377e-03 -7.413664539724132939e-05 -1.045648761971998408e-02
6.245191616267529175e-04 4.009420632284887293e-03 5.997466119061223462e-03 4.009420632284887293e-03 -6.948884321156111044e-03 3.705153303907204616e-03 5.997466119061223462e-03 3.705153303907204616e-03 -3.018031805747842591e-03
-1.331651562194609284e-02 7.916649035651689495e-03 7.354501274719887731e-03 7.916649035651689495e-03 3.858887915186835250e-03 -4.483363386249706456e-03 7.354501274719887731e-03 -4.483363386249706456e-03 -3.081813787505243828e-03
-2.164648987493202146e-03 -4.667338109244242167e-03 -4.778599250922236676e-03 -4.667338109244242167e-03 -5.118961226574902934e-03 3.386093598901177958e-03 -4.778599250922236676e-03 3.386093598901177958e-03 -6.098422529172384775e-03
-2.300554727954747317e-02 2.642542616734705301e-03 -1.846949931476618350e-03 2.642542616734705301e-03 -2.789055801955689275e-03 -4.864401276875754063e-03 -1.846949931476618350e-03 -4.864401276875754063e-03 -1.216432055428979218e-02
-7.132534485676101169e-03 -8.680690892278436054e-04 4.036521264909472342e-03 -8.680690892278436054e-04 -4.844097647689255318e-04 -5.130071112818974585e-03 4.036521264909472342e-03 -5.130071112818974585e-03 -1.590505046021453229e-03
-6.140334262952689900e-03 -1.700224534945354903e-03 -1.017174373188806449e-02 -1.700224534945354903e-03 -1.391422750187717647e-02 3.721936721946704149e-04 -1.017174373188806449e-02 3.721936721946704149e-04 -6.472195303175903684e-03
-1.994973561906066093e-03 4.436289924422295167e-03 -5.704882895767193589e-03 4.436289924422295167e-03 9.518788254683788197e-03 5.696562964102391087e-04 -5.704882895767193589e-03 5.696562964102391087e-04 1.068429646130559900e-02
6.481295423481441519e-03 -1.097157440184262818e-03 3.887417853401247021e-03 -1.097157440184262818e-03 2.618300595289774994e-03 -7.588426795248865515e-05 3.887417853401247021e-03 -7.588426795248865515e-05 3.881407280113021666e-03
-1.242882946953559851e-02 1.624877036777692052e-03 -3.751540199730768639e-03 1.624877036777692052e-03 -1.785883006188976460e-04 6.668890221768987957e-03 -3.751540199730768639e-03 6.668890221768987957e-03 -1.037346306532748591e-02
1.123781221511630304e-02 6.638000993104992142e-03 3.187289050223544775e-04 6.638000993104992142e-03 -1.422680227890140911e-02 1.700686406620670159e-04 3.187289050223544775e-04 1.700686406620670159e-04 -1.034510164785947331e-02
-7.165252476513979526e-04 4.654792675901215683e-03 -7.348066278811101262e-04 4.654792675901215683e-03 -1.004382400235308802e-02 6.210432651945485549e-03 -7.348066278811101262e-04 6.210432651945485549e-03 3.524748724132674253e-03
2.926437659325505699e-03 -6.774159514686135374e-04 3.751415369548251506e-03 -6.774159514686135374e-04 -8.258427833875930588e-03 -3.157535776220459379e-03 3.751415369548251506e-03 -3.157535776220459379e-03 -1.069686686068512665e-02
-1.669256039115460041e-02 1.349376823961205042e-03 -2.138278611436345749e-04 1.349376823961205042e-03 -6.496431083111707180e-03 1.774317489778714846e-03 -2.138278611436345749e-04 1.774317489778714846e-03 -1.081146720974546921e-02
-3.675031780865692030e-03 -2.626558111863318713e-03 -8.012593513934766418e-03 -2.626558111863318713e-03 -8.542722333050785724e-03 -7.191810097844613357e-03 -8.012593513934766418e-03 -7.191810097844613357e-03 -4.244750492367189813e-03
-9.305965276509420639e-03 4.848566568223387947e-03 -6.670275836794933508e-03 4.848566568223387947e-03 -9.243362939976811424e-03 -4.534237927134781264e-03 -6.670275836794933508e-03 -4.534237927134781264e-03 -1.778717753712462640e-03
3.552005394485407454e-03 -8.129565636462945011e-05 2.138415924637114985e-03 -8.129565636462945011e-05 2.593059932384702854e-03 -6.909094700478605848e-03 2.138415924637114985e-03 -6.909094700478605848e-03 3.611543150037207529e-03
4.177042601369608359e-03 3.407857741223133032e-03 6.109095509777645594e-03 3.407857741223133032e-03 -1.263707742152069165e-02 -1.207270144183095239e-03 6.109095509777645594e-03 -1.207270144183095239e-03 5.237125477346125111e-04
8.621983257440379508e-03 -1.253311260401085599e-02 -4.284895879064871613e-03 -1.253311260401085599e-02 -1.137421415555335547e-02 -2.440579864439375128e-03 -4.284895879064871613e-03 -2.440579864439375128e-03 2.420644484291304224e-04
4.045908494634800970e-03 5.671740482308753467e-03 8.866875109503533602e-04 5.671740482308753467e-03 -6.320482940853059187e-03 8.171271400442095198e-03 8.866875109503533602e-04 8.171271400442095198e-03 -5.863429710582879727e-03
-7.972966172494532280e-04 -2.382065716384219791e-03 3.552092775613169360e-03 -2.382065716384219791e-03 4.050932909481137247e-03 5.237574866003187612e-03 3.552092775613169360e-03 5.237574866003187612e-03 -1.152436614059472973e-02
-5.959430362448090573e-03 7.186985411290306401e-03 3.953390604861833565e-03 7.186985411290306401e-03 -7.248869974273437766e-03 -4.701135881160898970e-03 3.953390604861833565e-03 -4.701135881160898970e-03 7.331594936227895862e-03