-3.021459100000000035e+04
-3.021365130000000136e+04
-3.021589370000000054e+04
-3.021419310000000041e+04
-3.021377779999999984e+04
-3.021866389999999956e+04
-3.021611839999999938e+04
-3.021208109999999942e+04
-3.021437329999999929e+04
-3.021666379999999845e+04
-3.021391749999999956e+04
-3.021417659999999887e+04
-3.021653889999999956e+04
-3.021470709999999963e+04
-3.021436779999999999e+04
-3.021638950000000114e+04
-3.021527760000000126e+04
-3.021438639999999941e+04
-3.021452960000000166e+04
-3.021638190000000031e+04
-3.021642599999999948e+04
-3.021673510000000169e+04
-3.021691749999999956e+04
-3.021858850000000166e+04
-3.021888989999999831e+04
-3.021285009999999966e+04
-3.021656629999999859e+04
-3.021721069999999963e+04
-3.021570430000000124e+04
-3.021141419999999925e+04
-3.021669399999999951e+04
-3.021633060000000114e+04
-3.021855359999999928e+04
-3.021788929999999891e+04
-3.021583929999999964e+04
-3.021697239999999874e+04
-3.021866430000000037e+04
-3.022014319999999861e+04
-3.021558350000000064e+04
-3.021114960000000065e+04
-3.021474880000000121e+04
-3.021497780000000057e+04
-3.021707619999999952e+04
-3.020869060000000172e+04
-3.022161600000000180e+04
-3.021793500000000131e+04
-3.021811730000000171e+04
-3.021519259999999849e+04
-3.021819389999999839e+04
-3.021721619999999893e+04
-3.021637589999999909e+04
-3.021182259999999951e+04
-3.021625049999999828e+04
-3.021671589999999924e+04
-3.021598050000000148e+04
-3.021778870000000097e+04
-3.021602899999999863e+04
-3.021522929999999906e+04
-3.021988220000000001e+04
-3.021413720000000103e+04
-3.022100860000000102e+04
-3.021304859999999826e+04
-3.021584969999999885e+04
-3.021642099999999846e+04
-3.021559349999999904e+04
-3.021680919999999969e+04
-3.021360919999999896e+04
-3.021431840000000011e+04
-3.021361349999999948e+04
-3.021436089999999967e+04
-3.021671370000000024e+04
-3.021325670000000173e+04
-3.021503050000000076e+04
-3.021648679999999877e+04
-3.021589310000000114e+04
-3.021463170000000173e+04
-3.021675920000000042e+04
-3.021515030000000115e+04
-3.021508269999999902e+04
-3.021693909999999960e+04
-3.021573380000000179e+04
-3.021099859999999899e+04
-3.021564250000000175e+04
-3.021915829999999914e+04
-3.021458120000000054e+04
-3.021633339999999953e+04
-3.021944009999999980e+04
-3.021916509999999835e+04
-3.021505489999999918e+04
-3.021586469999999827e+04
-3.021441289999999935e+04
-3.021422060000000056e+04
-3.021357159999999931e+04
-3.021762210000000050e+04
-3.021510160000000178e+04
-3.021728380000000107e+04
-3.021678369999999995e+04
-3.021401429999999891e+04
-3.021604939999999988e+04
-3.021258819999999832e+04
-3.021669859999999971e+04
-3.021684159999999974e+04
-3.021450630000000092e+04
-3.021415769999999975e+04
-3.021948649999999907e+04
-3.021246440000000075e+04
-3.021606590000000142e+04
-3.021814900000000125e+04
-3.021582609999999841e+04
-3.021708390000000145e+04
-3.021617030000000159e+04
-3.021359249999999884e+04
-3.021724039999999877e+04
-3.021939029999999912e+04
-3.021754969999999958e+04
-3.021520430000000124e+04
-3.021466460000000006e+04
-3.021539679999999862e+04
-3.021711530000000130e+04
-3.021571280000000115e+04
-3.021304420000000027e+04
-3.021793539999999848e+04
-3.021719020000000091e+04
-3.021757019999999829e+04
-3.021683239999999932e+04
-3.021770860000000175e+04
-3.021372019999999975e+04
-3.021693419999999969e+04
-3.021873170000000027e+04
-3.021621419999999853e+04
-3.021970379999999932e+04
-3.021452100000000064e+04
-3.021798679999999877e+04
-3.021438509999999951e+04
-3.022028299999999945e+04
-3.021293760000000111e+04
-3.021667039999999906e+04
-3.021526810000000114e+04
-3.021502969999999914e+04
-3.021412389999999868e+04
-3.021648479999999836e+04
-3.021746319999999832e+04
-3.021631750000000102e+04
-3.021905050000000119e+04
-3.021821759999999995e+04
-3.021773559999999998e+04
-3.021375210000000152e+04
-3.021684850000000006e+04
-3.022069129999999859e+04
-3.021634830000000147e+04
-3.021722200000000157e+04
-3.021948700000000099e+04
-3.021521440000000075e+04
-3.021603139999999985e+04
-3.021735239999999976e+04
-3.021644269999999960e+04
-3.021671210000000065e+04
-3.021707099999999991e+04
-3.021096700000000055e+04
-3.021586769999999888e+04
-3.021779850000000079e+04
-3.021385180000000037e+04
-3.021584730000000127e+04
-3.021832140000000072e+04
-3.021124100000000180e+04
-3.021294299999999930e+04
-3.021611730000000171e+04
-3.021687359999999899e+04
-3.021810510000000068e+04
-3.021428410000000076e+04
-3.021628900000000067e+04
-3.021498359999999957e+04
-3.021841340000000127e+04
-3.021519120000000112e+04
-3.021792599999999948e+04
-3.021648549999999886e+04
-3.021526339999999982e+04
-3.021587919999999940e+04
-3.022088430000000153e+04
-3.021333190000000104e+04
-3.021258450000000084e+04
-3.021711779999999999e+04
-3.021682809999999881e+04
-3.021522479999999996e+04
-3.021613820000000123e+04
-3.022162399999999980e+04
-3.021424490000000151e+04
-3.021666909999999916e+04
-3.021834490000000005e+04
-3.021834560000000056e+04
-3.021981789999999819e+04
-3.021492949999999837e+04
-3.021875189999999930e+04
-3.021414359999999942e+04
-3.021641180000000168e+04
-3.021441730000000098e+04
-3.021970899999999892e+04
-3.021534809999999925e+04
-3.021369220000000132e+04
-3.021627869999999893e+04
-3.021459230000000025e+04
-3.021477880000000005e+04
-3.021119789999999921e+04
-3.021386839999999938e+04
-3.021301199999999881e+04
-3.021445780000000013e+04
-3.021621169999999984e+04
-3.021837580000000162e+04
-3.021224199999999837e+04
-3.021242229999999836e+04
-3.021719849999999860e+04
-3.021596259999999893e+04
-3.021600969999999870e+04
-3.021385090000000127e+04
-3.021382200000000012e+04
-3.021607930000000124e+04
-3.022177110000000175e+04
-3.021536779999999999e+04
-3.021465789999999834e+04
-3.021435299999999916e+04
-3.021721050000000105e+04
-3.021493159999999989e+04
-3.021810499999999956e+04
-3.020696240000000034e+04
-3.021728250000000116e+04
-3.021714709999999832e+04
-3.021729420000000027e+04
-3.021760190000000148e+04
-3.022118750000000000e+04
-3.021800730000000112e+04
-3.021511049999999886e+04
-3.021574499999999898e+04
-3.021176239999999962e+04
-3.021820479999999952e+04
-3.021494320000000153e+04
-3.021319459999999890e+04
-3.021608759999999893e+04
-3.021639380000000165e+04
-3.021572590000000127e+04
-3.021515079999999944e+04
-3.021756499999999869e+04
-3.021646410000000105e+04
-3.021733390000000145e+04
-3.021663680000000022e+04
-3.021575029999999970e+04
-3.021787099999999919e+04
-3.021467239999999947e+04
-3.021250140000000101e+04
-3.021581710000000021e+04
-3.021236270000000150e+04
-3.021726979999999821e+04
-3.021562740000000122e+04
-3.021702130000000034e+04
-3.021700869999999850e+04
-3.021669050000000061e+04
-3.021657749999999942e+04
-3.021654790000000139e+04
-3.021367359999999826e+04
-3.021298519999999917e+04
-3.021495100000000093e+04
-3.021891540000000168e+04
-3.021559590000000026e+04
-3.021790669999999955e+04
-3.021567699999999968e+04
-3.021602609999999913e+04
-3.021452000000000044e+04
-3.021464909999999873e+04
-3.021079530000000159e+04
-3.021613320000000022e+04
-3.021353819999999905e+04
-3.021638079999999900e+04
-3.021624199999999837e+04
-3.021853919999999925e+04
-3.021726239999999962e+04
-3.021638950000000114e+04
-3.021602500000000146e+04
-3.021664029999999912e+04
-3.021511730000000171e+04
-3.021881550000000061e+04
-3.021400170000000071e+04
-3.021501469999999972e+04
-3.021701710000000094e+04
-3.021794420000000173e+04
-3.021302609999999913e+04
-3.021647090000000026e+04
-3.021685919999999896e+04
-3.021346630000000005e+04
-3.021816219999999885e+04
-3.021424599999999919e+04
-3.021982430000000022e+04
-3.021273099999999977e+04
-3.021103810000000158e+04
-3.021674060000000100e+04
-3.021192980000000171e+04
-3.021520379999999932e+04
-3.021415060000000085e+04
-3.021469629999999961e+04
-3.022023609999999826e+04
-3.021677520000000004e+04
-3.021614670000000115e+04
-3.021694949999999881e+04
-3.021448779999999897e+04
-3.021276480000000083e+04
-3.021570599999999831e+04
-3.022023349999999846e+04
-3.021483179999999993e+04
-3.021738669999999911e+04
-3.021782979999999952e+04
-3.021998849999999948e+04
-3.021849669999999969e+04
-3.021852600000000166e+04
-3.021744450000000143e+04
-3.021409100000000035e+04
-3.021588880000000063e+04
-3.021613509999999951e+04
-3.021536980000000040e+04
-3.021593620000000010e+04
-3.021833190000000104e+04
-3.021783139999999912e+04
-3.021560129999999845e+04
-3.021624689999999828e+04
-3.021794139999999970e+04
-3.021421440000000075e+04
-3.021600360000000001e+04
-3.021630489999999918e+04
-3.021837889999999970e+04
-3.022022469999999885e+04
-3.021456520000000091e+04
-3.021678359999999884e+04
-3.021521849999999904e+04
-3.021806899999999951e+04
-3.021528450000000157e+04
-3.021537159999999858e+04
-3.021341330000000016e+04
-3.021832180000000153e+04
-3.021574769999999990e+04
-3.021403580000000147e+04
-3.021748609999999826e+04
-3.021779599999999846e+04
-3.021565989999999874e+04
-3.021398010000000068e+04
-3.021353830000000016e+04
-3.021662940000000162e+04
-3.021347650000000067e+04
-3.021530289999999877e+04
-3.021120140000000174e+04
-3.021166549999999916e+04
-3.022036330000000089e+04
-3.021825879999999961e+04
-3.021522529999999824e+04
-3.021769139999999970e+04
-3.021922119999999995e+04
-3.021210280000000057e+04
-3.021313079999999900e+04
-3.021992329999999856e+04
-3.021554859999999826e+04
-3.021451390000000174e+04
-3.021304219999999987e+04
-3.021383339999999953e+04
-3.021570019999999931e+04
-3.021464849999999933e+04
-3.021760949999999866e+04
-3.021654720000000088e+04
-3.021699160000000120e+04
-3.021616370000000097e+04
-3.021416259999999966e+04
-3.021626190000000133e+04
-3.021743660000000091e+04
-3.021547950000000128e+04
-3.021447070000000167e+04
-3.021651559999999881e+04
-3.021459059999999954e+04
-3.021433550000000105e+04
-3.021256290000000081e+04
-3.021761200000000099e+04
-3.021418579999999929e+04
-3.022042280000000028e+04
-3.021650249999999869e+04
-3.021162210000000050e+04
-3.021262429999999949e+04
-3.022055889999999999e+04
-3.021469800000000032e+04
-3.021693739999999889e+04
-3.021548589999999967e+04
-3.021526090000000113e+04
-3.021805370000000039e+04
-3.021781019999999990e+04
-3.021278779999999824e+04
-3.021968219999999928e+04
-3.021398489999999947e+04
-3.021419029999999839e+04
-3.021305830000000060e+04
-3.021262960000000021e+04
-3.021633629999999903e+04
-3.021933780000000115e+04
-3.021825820000000022e+04
-3.021295460000000094e+04
-3.021453800000000047e+04
-3.021145829999999842e+04
-3.021394849999999860e+04
-3.021637640000000101e+04
-3.021452100000000064e+04
-3.021410480000000098e+04
-3.021786100000000079e+04
-3.021500270000000091e+04
-3.021685749999999825e+04
-3.021409619999999995e+04
-3.021647910000000047e+04
-3.021195330000000104e+04
-3.021626810000000114e+04
-3.021555150000000140e+04
-3.021567260000000169e+04
-3.021802419999999984e+04
-3.021389110000000073e+04
-3.021386909999999989e+04
-3.021381360000000132e+04
-3.021824710000000050e+04
-3.021676399999999921e+04
-3.021680630000000019e+04
-3.021636290000000008e+04
-3.021672179999999935e+04
-3.021755730000000040e+04
-3.021823359999999957e+04
-3.021608720000000176e+04
-3.021871480000000156e+04
-3.021705949999999939e+04
-3.021780930000000080e+04
-3.021872079999999914e+04
-3.021819199999999910e+04
-3.021879539999999906e+04
-3.021768319999999949e+04
-3.022016010000000097e+04
-3.021693530000000101e+04
-3.021849759999999878e+04
-3.021330960000000050e+04
-3.021749480000000040e+04
-3.021471849999999904e+04
-3.021546700000000055e+04
-3.021446150000000125e+04
-3.021337619999999879e+04
-3.021301540000000023e+04
-3.021725509999999849e+04
-3.021204750000000058e+04
-3.021519470000000001e+04
-3.021600849999999991e+04
-3.021139189999999871e+04
-3.021811690000000090e+04
-3.021297639999999956e+04
-3.021382679999999891e+04
-3.021505909999999858e+04
-3.021640360000000146e+04
-3.021514800000000105e+04
-3.021681739999999991e+04
-3.021717580000000089e+04
-3.021959419999999955e+04
-3.021589359999999942e+04
-3.021491560000000027e+04
-3.021569180000000051e+04
-3.021984609999999884e+04
-3.021641379999999845e+04
-3.021562389999999868e+04
-3.021277300000000105e+04
-3.021534969999999885e+04
-3.021193950000000041e+04
-3.021857489999999962e+04
-3.022034270000000106e+04
-3.021180380000000150e+04
-3.021469020000000091e+04
-3.021233880000000136e+04
-3.021407570000000123e+04
-3.021692889999999898e+04
-3.021785250000000087e+04
-3.021712789999999950e+04
-3.021410009999999966e+04
-3.021211850000000049e+04
-3.021560930000000008e+04
-3.021228199999999924e+04
-3.021756989999999860e+04
-3.021589140000000043e+04
-3.021960440000000017e+04
-3.021680370000000039e+04
-3.021614970000000176e+04
-3.021555619999999908e+04
-3.021875489999999991e+04
-3.021722000000000116e+04
-3.021285580000000118e+04
-3.021681409999999960e+04
-3.021296359999999913e+04
-3.021593839999999909e+04
-3.021560429999999906e+04
-3.021772309999999925e+04
-3.021492260000000169e+04
-3.021621350000000166e+04
-3.021180219999999827e+04
-3.021773029999999926e+04
-3.021790810000000056e+04
-3.021407960000000094e+04
-3.020790169999999853e+04
-3.021618430000000080e+04
-3.021392050000000017e+04
-3.021815929999999935e+04
-3.021641129999999976e+04
-3.021365139999999883e+04
-3.021427999999999884e+04
-3.021459019999999873e+04
-3.021601970000000074e+04
-3.021647590000000127e+04
-3.021888330000000133e+04
-3.021874169999999867e+04
-3.021545089999999982e+04
-3.021661179999999877e+04
-3.021769350000000122e+04
-3.021601810000000114e+04
-3.021317380000000048e+04
-3.021764449999999852e+04
-3.021666430000000037e+04
-3.021870839999999953e+04
-3.021225579999999900e+04
-3.021492459999999846e+04
-3.021525279999999839e+04
-3.021652869999999893e+04
-3.021119670000000042e+04
-3.021609739999999874e+04
-3.021420609999999942e+04
-3.021547729999999865e+04
-3.021388829999999871e+04
-3.021348219999999856e+04
-3.021463980000000083e+04
-3.021542620000000170e+04
-3.021622520000000077e+04
-3.021436449999999968e+04
-3.021594440000000031e+04
-3.021504799999999886e+04
-3.021544429999999920e+04
-3.021551780000000144e+04
-3.021645130000000063e+04
-3.021265559999999823e+04
-3.021577720000000045e+04
-3.021842239999999947e+04
-3.021806350000000020e+04
-3.021394090000000142e+04
-3.021613869999999952e+04
-3.021139020000000164e+04
-3.021769459999999890e+04
-3.021322109999999884e+04
-3.021040499999999884e+04
-3.021441110000000117e+04
-3.021627040000000125e+04
-3.022064150000000154e+04
-3.021440250000000015e+04
-3.021084360000000015e+04
-3.021728629999999976e+04
-3.021782819999999992e+04
-3.021466540000000168e+04
-3.021355029999999897e+04
-3.021587419999999838e+04
-3.021207070000000022e+04
-3.021681079999999929e+04
-3.021579040000000168e+04
-3.021720679999999993e+04
-3.021677730000000156e+04
-3.021789289999999892e+04
-3.021594099999999889e+04
-3.021780029999999897e+04
-3.021642689999999857e+04
-3.021681439999999930e+04
-3.021670089999999982e+04
-3.021483329999999842e+04
-3.021372929999999906e+04
-3.021547940000000017e+04
-3.021480779999999868e+04
-3.021471909999999843e+04
-3.021722660000000178e+04
-3.021517740000000049e+04
-3.021483840000000055e+04
-3.021845969999999943e+04
-3.021597899999999936e+04
-3.021786189999999988e+04
-3.021717090000000098e+04
-3.021300129999999990e+04
-3.021461909999999989e+04
-3.021138899999999921e+04
-3.021465039999999863e+04
-3.021529609999999957e+04
-3.021827330000000075e+04
-3.021499810000000070e+04
-3.021579990000000180e+04
-3.021681009999999878e+04
-3.021396519999999873e+04
-3.021781260000000111e+04
-3.021507280000000173e+04
-3.021730679999999847e+04
-3.021743340000000171e+04
-3.021437930000000051e+04
-3.021790929999999935e+04
-3.021184140000000116e+04
-3.021597399999999834e+04
-3.021782440000000133e+04
-3.021745239999999831e+04
-3.021581499999999869e+04
-3.021742510000000038e+04
-3.021643820000000051e+04
-3.021306669999999940e+04
-3.021646580000000176e+04
-3.021526030000000173e+04
-3.021449870000000010e+04
-3.021599450000000070e+04
-3.021410259999999835e+04
-3.021410160000000178e+04
-3.021638369999999850e+04
-3.021397880000000077e+04
-3.021357180000000153e+04
-3.021984850000000006e+04
-3.021690460000000166e+04
-3.021768990000000122e+04
-3.021555770000000120e+04
-3.021298389999999927e+04
-3.021716739999999845e+04
-3.021581810000000041e+04
-3.021517050000000017e+04
-3.021508490000000165e+04
-3.021708659999999873e+04
-3.021809990000000107e+04
-3.021406019999999990e+04
-3.021312120000000141e+04
-3.021625670000000173e+04
-3.021428689999999915e+04
-3.021757600000000093e+04
-3.021344480000000112e+04
-3.021692880000000150e+04
-3.021566470000000118e+04
-3.021998749999999927e+04
-3.021741119999999864e+04
-3.021732059999999910e+04
-3.021632200000000012e+04
-3.021834019999999873e+04
-3.021850990000000093e+04
-3.021700639999999839e+04
-3.021411549999999988e+04
-3.021316920000000027e+04
-3.021778059999999823e+04
-3.021393270000000120e+04
-3.021291330000000016e+04
-3.021558840000000055e+04
-3.021619610000000102e+04
-3.021343570000000182e+04
-3.021927809999999954e+04
-3.021125230000000010e+04
-3.021449139999999898e+04
-3.021597130000000107e+04
-3.021596429999999964e+04
-3.021448010000000068e+04
-3.021532200000000012e+04
-3.021768130000000019e+04
-3.021915290000000095e+04
-3.021357660000000033e+04
-3.021453440000000046e+04
-3.021541300000000047e+04
-3.021213209999999890e+04
-3.021423500000000058e+04
-3.021851659999999902e+04
-3.021935290000000168e+04
-3.021465810000000056e+04
-3.021728480000000127e+04
-3.021659600000000137e+04
-3.021741570000000138e+04
-3.021658589999999822e+04
-3.021997810000000027e+04
-3.021704910000000018e+04
-3.021642729999999938e+04
-3.021938349999999991e+04
-3.021228510000000097e+04
-3.021182530000000042e+04
-3.021550990000000093e+04
-3.021578849999999875e+04
-3.021405240000000049e+04
-3.021661189999999988e+04
-3.021699429999999847e+04
-3.021581910000000062e+04
-3.021643720000000030e+04
-3.021274710000000050e+04
-3.021679230000000098e+04
-3.021311230000000069e+04
-3.021857080000000133e+04
-3.021358269999999902e+04
-3.021941300000000047e+04
-3.021267429999999877e+04
-3.021593349999999919e+04
-3.021010819999999876e+04
-3.021661119999999937e+04
-3.021579520000000048e+04
-3.021807119999999850e+04
-3.021808199999999852e+04
-3.021993089999999938e+04
-3.021657210000000123e+04
-3.021439900000000125e+04
-3.021785520000000179e+04
-3.021208120000000054e+04
-3.021901459999999861e+04
-3.021539830000000075e+04
-3.021419350000000122e+04
-3.021400259999999980e+04
-3.021861079999999856e+04
-3.021334830000000147e+04
-3.021835450000000128e+04
-3.021114800000000105e+04
-3.021613279999999941e+04
-3.021609490000000005e+04
-3.021688060000000041e+04
-3.021686290000000008e+04
-3.021365000000000146e+04
-3.021556460000000152e+04
-3.021753499999999985e+04
-3.021644789999999921e+04
-3.021421319999999832e+04
-3.021653580000000147e+04
-3.021307349999999860e+04
-3.021915160000000105e+04
-3.021499870000000010e+04
-3.021436990000000151e+04
-3.021763650000000052e+04
-3.021554060000000027e+04
-3.021895109999999841e+04
-3.021707379999999830e+04
-3.021620040000000154e+04
-3.021548270000000048e+04
-3.021515840000000026e+04
-3.021638409999999931e+04
-3.021583980000000156e+04
-3.021763399999999820e+04
-3.021702890000000116e+04
-3.021494440000000031e+04
-3.021931000000000131e+04
-3.021897000000000116e+04
-3.021780280000000130e+04
-3.021361349999999948e+04
-3.021262629999999990e+04
-3.021859739999999874e+04
-3.021932400000000052e+04
-3.021728359999999884e+04
-3.021627960000000166e+04
-3.021308260000000155e+04
-3.021442889999999898e+04
-3.021691059999999925e+04
-3.021444389999999839e+04
-3.021557809999999881e+04
-3.021728489999999874e+04
-3.021583369999999923e+04
-3.021598749999999927e+04
-3.021050389999999970e+04
-3.021673660000000018e+04
-3.021681720000000132e+04
-3.021465710000000036e+04
-3.021281769999999960e+04
-3.021386590000000069e+04
-3.021597439999999915e+04
-3.021515380000000005e+04
-3.022000630000000092e+04
-3.021641500000000087e+04
-3.021380919999999969e+04
-3.021870260000000053e+04
-3.021703169999999955e+04
-3.021552470000000176e+04
-3.021124020000000019e+04
-3.021518230000000040e+04
-3.021516879999999946e+04
-3.021468470000000161e+04
-3.021396800000000076e+04
-3.021764229999999952e+04
-3.021420980000000054e+04
-3.021398900000000140e+04
-3.021605240000000049e+04
-3.021609430000000066e+04
-3.022025860000000102e+04
-3.021438639999999941e+04
-3.021629560000000129e+04
-3.021523790000000008e+04
-3.020838790000000154e+04
-3.021413469999999870e+04
-3.021765409999999974e+04
-3.021448119999999835e+04
-3.021344299999999930e+04
-3.021215309999999954e+04
-3.021610880000000179e+04
-3.021647529999999824e+04
-3.021572929999999906e+04
-3.021522859999999855e+04
-3.021792669999999998e+04
-3.021710169999999925e+04
-3.021574069999999847e+04
-3.021310029999999824e+04
-3.021831520000000091e+04
-3.021872369999999864e+04
-3.021795070000000123e+04
-3.021681429999999818e+04
-3.021811100000000079e+04
-3.021486400000000140e+04
-3.021625920000000042e+04
-3.021332930000000124e+04
-3.021473359999999957e+04
-3.021475539999999819e+04
-3.021699590000000171e+04
-3.021968059999999969e+04
-3.021584490000000005e+04
-3.021684660000000076e+04
-3.021716070000000036e+04
-3.021453480000000127e+04
-3.021705979999999909e+04
-3.021458550000000105e+04
-3.021718630000000121e+04
-3.021351190000000133e+04
-3.021410680000000139e+04
-3.021408459999999832e+04
-3.021217269999999917e+04
-3.021702379999999903e+04
-3.021943579999999929e+04
-3.021728900000000067e+04
-3.021402790000000095e+04
-3.021903989999999976e+04
-3.021618929999999818e+04
-3.021401959999999963e+04
-3.021787399999999980e+04
-3.021772290000000066e+04
-3.021814229999999952e+04
-3.021383859999999913e+04
-3.021653299999999945e+04
-3.021330589999999938e+04
-3.021552309999999852e+04
-3.021432670000000144e+04
-3.020656190000000061e+04
-3.021412229999999909e+04
-3.021615550000000076e+04
-3.021803229999999894e+04
-3.021554520000000048e+04
-3.021639930000000095e+04
-3.021745780000000013e+04
-3.021083699999999953e+04
-3.021259749999999985e+04
-3.021567599999999948e+04
-3.021183399999999892e+04
-3.021620799999999872e+04
-3.021354590000000098e+04
-3.021858039999999892e+04
-3.021490460000000166e+04
-3.021735699999999997e+04
-3.021833989999999903e+04
-3.021543230000000040e+04
-3.021496500000000015e+04
-3.022083000000000175e+04
-3.021115529999999853e+04
-3.021878919999999925e+04
-3.021615209999999934e+04
-3.021835380000000077e+04
-3.021459330000000045e+04
-3.021718119999999908e+04
-3.021534470000000147e+04
-3.021807240000000093e+04
-3.021287299999999959e+04
-3.021635900000000038e+04
-3.021761439999999857e+04
-3.021230889999999999e+04
-3.021988009999999849e+04
-3.022064610000000175e+04
-3.021693809999999939e+04
-3.021744519999999829e+04
-3.021377319999999963e+04
-3.021674970000000030e+04
-3.021716509999999835e+04
-3.021561130000000048e+04
-3.021703719999999885e+04
-3.021605489999999918e+04
-3.021470260000000053e+04
-3.021836460000000079e+04
-3.021847049999999945e+04
-3.021603220000000147e+04
-3.021873900000000140e+04
-3.021818200000000070e+04
-3.021301339999999982e+04
-3.021684059999999954e+04
-3.021517339999999967e+04
-3.021849639999999999e+04
-3.021316719999999987e+04
-3.022074049999999988e+04
-3.021544359999999870e+04
-3.021401339999999982e+04
-3.021726759999999922e+04
-3.021528169999999955e+04
-3.021626080000000002e+04
-3.021599789999999848e+04
-3.021455630000000019e+04
-3.021514029999999912e+04
-3.021548489999999947e+04
-3.021363460000000123e+04
-3.021770899999999892e+04
-3.021609609999999884e+04
-3.021440380000000005e+04
-3.021820530000000144e+04
-3.021675639999999839e+04
-3.021743939999999930e+04
-3.021677869999999893e+04
-3.021518319999999949e+04
-3.021712410000000091e+04
-3.021378840000000127e+04
-3.021585329999999885e+04
-3.021062619999999879e+04
-3.021451459999999861e+04
-3.022006950000000143e+04
-3.021539159999999902e+04
-3.021889310000000114e+04
-3.021647599999999875e+04
-3.021541489999999976e+04
-3.021666939999999886e+04
-3.021679869999999937e+04
-3.021399680000000080e+04
-3.021719979999999850e+04
-3.021634700000000157e+04
-3.021269800000000032e+04
-3.021813330000000133e+04
-3.021592629999999917e+04
-3.021859219999999914e+04
-3.021597279999999955e+04
-3.021868100000000049e+04
-3.021637459999999919e+04
-3.021450950000000012e+04
-3.021755029999999897e+04
-3.021753440000000046e+04
-3.021556920000000173e+04
-3.021814549999999872e+04
-3.021516379999999845e+04
-3.021760949999999866e+04
-3.021561230000000069e+04
-3.021436890000000130e+04
-3.021527560000000085e+04
-3.021498400000000038e+04
-3.021611899999999878e+04
-3.022123319999999876e+04
-3.021569380000000092e+04
-3.021797139999999854e+04
-3.022024049999999988e+04
-3.021522529999999824e+04
-3.021759779999999955e+04
-3.021904990000000180e+04
-3.021705760000000009e+04
-3.021418240000000151e+04
-3.021297000000000116e+04
-3.021518739999999889e+04
-3.021860619999999835e+04
-3.021711750000000029e+04
-3.021473040000000037e+04
-3.021577119999999923e+04
-3.021716800000000148e+04
-3.021529170000000158e+04
-3.021405990000000020e+04
-3.021233740000000034e+04
-3.021751800000000003e+04
-3.021577490000000034e+04
-3.021260540000000037e+04
-3.021353910000000178e+04
-3.021817290000000139e+04
-3.021750140000000101e+04
-3.021739900000000125e+04
-3.021708450000000084e+04
-3.021647450000000026e+04
-3.021578640000000087e+04
-3.021546089999999822e+04
-3.021568219999999928e+04
-3.021573419999999896e+04
-3.021251129999999830e+04
-3.021479379999999946e+04
-3.021400349999999889e+04
-3.021618820000000051e+04
-3.021066479999999865e+04
-3.021728540000000066e+04
-3.021665439999999944e+04
-3.021756829999999900e+04
-3.021469589999999880e+04
-3.021741219999999885e+04
-3.021913000000000102e+04
-3.021405779999999868e+04
-3.021267689999999857e+04
-3.021459389999999985e+04
-3.020992130000000179e+04
-3.021692490000000180e+04
-3.021686690000000090e+04
-3.021349069999999847e+04
-3.021836430000000109e+04
-3.021453410000000076e+04
-3.021573140000000058e+04
-3.021724000000000160e+04
-3.021530970000000161e+04
-3.021545179999999891e+04
-3.021775609999999870e+04
-3.021737970000000132e+04
-3.021353870000000097e+04
-3.021370999999999913e+04
-3.021608169999999882e+04
-3.021132830000000104e+04
-3.021673300000000017e+04
-3.021718579999999929e+04
-3.021641690000000017e+04
-3.021715230000000156e+04
-3.022068669999999838e+04
-3.022031799999999930e+04
-3.021807059999999910e+04
-3.021756209999999919e+04
-3.021912139999999999e+04
-3.021493820000000051e+04
-3.021570950000000084e+04
-3.021911059999999998e+04
-3.021077600000000166e+04
-3.021288070000000153e+04
-3.021816930000000139e+04
-3.022092970000000059e+04
-3.021915799999999945e+04
-3.021715869999999995e+04
-3.022050600000000122e+04
-3.021926800000000003e+04
-3.021605749999999898e+04
-3.021672220000000016e+04
-3.021561209999999846e+04
-3.021562419999999838e+04
-3.021710680000000139e+04
-3.021730470000000059e+04
-3.021431239999999889e+04
-3.021875170000000071e+04
-3.021458290000000125e+04
-3.021915610000000015e+04
-3.021443089999999938e+04
-3.021522729999999865e+04
-3.021539579999999842e+04
-3.021791990000000078e+04
-3.021804530000000159e+04
-3.021701940000000104e+04
-3.021617850000000180e+04
-3.021650500000000102e+04
-3.021713469999999870e+04
-3.021410169999999925e+04
-3.021676640000000043e+04
-3.021782219999999870e+04
-3.021330020000000150e+04
-3.021394570000000022e+04
-3.021387580000000162e+04
-3.021466519999999946e+04
-3.021532779999999912e+04
-3.021775100000000020e+04
-3.021972910000000047e+04
-3.021139449999999852e+04
-3.021629720000000088e+04
-3.021611219999999958e+04
-3.021823860000000059e+04
-3.021264719999999943e+04
-3.020971719999999914e+04
-3.021382489999999962e+04
-3.021595209999999861e+04
-3.021342220000000088e+04
-3.021468089999999938e+04
-3.021904899999999907e+04
-3.021594420000000173e+04
-3.021777479999999923e+04
-3.021670319999999992e+04
-3.021690910000000076e+04
-3.021225670000000173e+04
-3.021122780000000057e+04
-3.021255429999999978e+04
-3.021659170000000086e+04
-3.021645049999999901e+04
-3.021652300000000105e+04
-3.021420209999999861e+04
-3.021498960000000079e+04
-3.021813780000000042e+04
-3.021082489999999962e+04
-3.021760900000000038e+04
-3.021442810000000100e+04
-3.021714400000000023e+04
-3.021625370000000112e+04
-3.021625149999999849e+04
-3.021098050000000148e+04
-3.021620799999999872e+04
-3.021343809999999939e+04
-3.021487220000000161e+04
-3.021413079999999900e+04
-3.021770990000000165e+04
-3.021624039999999877e+04
-3.021498010000000068e+04
-3.021447450000000026e+04
-3.021678009999999995e+04
-3.021581490000000122e+04
-3.021838190000000031e+04
-3.021252939999999944e+04
-3.021701499999999942e+04
-3.021596210000000065e+04
-3.021831850000000122e+04
-3.021258090000000084e+04
-3.021446110000000044e+04
-3.021623760000000038e+04
-3.021310870000000068e+04
-3.021627179999999862e+04
-3.021718170000000100e+04
-3.021369919999999911e+04
-3.021772369999999864e+04
-3.021444900000000052e+04
-3.021762289999999848e+04
-3.021728139999999985e+04
-3.021589930000000095e+04
-3.021369800000000032e+04
-3.021635459999999875e+04
-3.021370390000000043e+04
-3.021527370000000155e+04
-3.021472550000000047e+04
-3.021758160000000134e+04
-3.021538239999999860e+04
-3.021515590000000157e+04
-3.021702660000000105e+04
-3.021800939999999900e+04
-3.021222899999999936e+04
-3.021614110000000073e+04
-3.021985599999999977e+04
-3.021651199999999881e+04
-3.021746010000000024e+04
-3.021746710000000166e+04
-3.021667280000000028e+04
-3.021554739999999947e+04
-3.021599850000000151e+04
-3.021777549999999974e+04
-3.021470279999999912e+04
-3.021459660000000076e+04
-3.021506469999999899e+04
-3.021712940000000162e+04
-3.021566630000000077e+04
-3.021438550000000032e+04
-3.021506090000000040e+04
-3.021665169999999853e+04
-3.021767490000000180e+04
-3.021496879999999874e+04
-3.021601440000000002e+04
-3.022040610000000015e+04
-3.021640610000000015e+04
-3.021229680000000008e+04
-3.021663629999999830e+04
-3.021879420000000027e+04
-3.021246630000000005e+04
-3.021675259999999980e+04
-3.021500409999999829e+04
-3.021500769999999829e+04
-3.021371649999999863e+04
-3.021793530000000101e+04
-3.022025010000000111e+04
-3.021384010000000126e+04
-3.021566709999999875e+04
-3.021670469999999841e+04
-3.021570560000000114e+04
-3.021892719999999827e+04
-3.021399559999999838e+04