-4.884973389045199355e+01 1.349724523439599899e+01 -1.259077116629199899e+01 1.349724523439599899e+01 -6.175930737730598707e+01 7.173052212644999592e+00 -1.259077116629199899e+01 7.173052212644999592e+00 -3.087197170502499333e+01
-1.747651275369999979e+01 -9.683140363093997394e+00 2.638761376217999555e+00 -9.683140363093997394e+00 -3.568089345615299379e+01 5.909365905838998678e+00 2.638761376217999555e+00 5.909365905838998678e+00 -4.637037367451499392e+01
-4.014988743174199470e+01 -9.491090772393999231e+00 7.695427099348999711e+00 -9.491090772393999231e+00 -4.875947058282299196e+01 9.846382515188997431e+00 7.695427099348999711e+00 9.846382515188997431e+00 -6.123693249060198696e+01
-5.593060229956099505e+01 -6.969479646502998449e+00 -4.369128188424999948e+00 -6.969479646502998449e+00 -3.143083601396199356e+01 5.131565063503999546e+00 -4.369128188424999948e+00 5.131565063503999546e+00 -8.551584174689598683e+01
-4.241223161018799459e+01 -1.477437501255099939e+01 -7.470729078229999542e-01 -1.477437501255099939e+01 -6.121388653971798988e+01 -1.475709054938799802e+01 -7.470729078229999542e-01 -1.475709054938799802e+01 -5.948928121523199053e+01
-9.268313247182000225e+00 -1.597852594623999645e+00 1.399465367430899754e+01 -1.597852594623999645e+00 -3.015178573989999222e+01 7.107755351806998689e+00 1.399465367430899754e+01 7.107755351806998689e+00 -1.588826263861099974e+01
-3.943162196252399809e+01 7.998865452654999153e+00 9.919361359654999433e+00 7.998865452654999153e+00 -4.947581555613399473e+01 -2.427698876038699538e+01 9.919361359654999433e+00 -2.427698876038699538e+01 -6.482633934078499749e+01
-1.491649170966899796e+01 -8.367600666798997722e+00 1.139814320804499914e+01 -8.367600666798997722e+00 -2.924723216770299672e+01 -2.041295099550299597e+01 1.139814320804499914e+01 -2.041295099550299597e+01 -5.316700868938799118e+01
-1.545999205134999777e+01 5.627053007510000038e-01 1.334744655364999755e+00 5.627053007510000038e-01 -1.635494314401199745e+01 8.087208264376998912e+00 1.334744655364999755e+00 8.085287768469999747e+00 -1.065683178794299835e+01
-3.102177038577099921e+01 4.820444726569999006e-01 8.684482491453998421e+00 4.820444726569999006e-01 -2.120227481327999541e+01 6.341477484913998985e+00 8.684482491453998421e+00 6.341477484913998985e+00 -3.763211729766499758e+01
-5.362792770706799672e+01 9.882871937421999320e+00 2.237377731654999646e+00 9.882871937421999320e+00 -6.137520819590599075e+01 -1.001922714681899862e+01 2.237377731654999646e+00 -1.001922714681899862e+01 -3.900143087935599340e+01
-6.566559605214399653e+01 -5.532948708066999011e+00 -1.245825694870899802e+01 -5.532948708066999011e+00 -4.943356464617999535e+01 3.666226686462999762e+00 -1.245825694870899802e+01 3.666226686462999762e+00 -3.112163617293499840e+01
-2.395626594391799813e+01 7.322850893390999261e+00 -1.325142175829999713e+00 7.322850893390999261e+00 -1.953912535781799775e+01 2.642602368031999660e+00 -1.325142175829999713e+00 2.642602368031999660e+00 -2.705594633781599612e+01
-1.220859248079899828e+01 -7.860589747350999801e+00 -1.224700239893899756e+01 -7.860589747350999801e+00 1.563283668297999807e+00 5.045142747688998952e+00 -1.224700239893899756e+01 5.045142747688998952e+00 -3.089309716000199657e+01
-5.480519169805899082e+01 -5.991947229839999167e+00 1.279242323652699831e+01 -5.991947229839999167e+00 -5.139054997541299485e+01 7.086629896830000108e-01 1.279242323652699831e+01 7.086629896830000108e-01 -1.927793791446599769e+01
-3.517196204079799315e+01 2.729216733437699460e+01 -1.139046122441699715e+01 2.729216733437699460e+01 -2.567895077249699654e+01 3.141931303851999591e+00 -1.139046122441699715e+01 3.141931303851999591e+00 -4.005386263639199740e+01
-3.805078540539099663e+01 -9.671617387651998854e+00 -6.191678804167999317e+00 -9.671617387651998854e+00 -1.885926980673999864e+01 -8.893816545316997946e+00 -6.191678804167999317e+00 -8.893816545316997946e+00 -2.168623978184399803e+01
-5.517200641629599289e+01 -3.456892632599999349e+00 4.868457124244999434e+00 -3.456892632599999349e+00 -5.441341053303099073e+01 1.185330073800400008e+01 4.868457124244999434e+00 1.185330073800400008e+01 -5.928186765727598839e+01
-5.470340541498799070e+01 1.882085988859999726e-01 -1.125602651092699880e+01 1.882085988859999726e-01 -3.486660319158499988e+01 3.149613287479999801e-01 -1.125602651092699880e+01 3.149613287479999801e-01 -5.140783443857599622e+01
-4.831391553239899395e+01 1.282891265875999887e+00 -1.168429709818799900e+01 1.282891265875999887e+00 -3.619558635922899725e+01 -6.314590542215999136e+00 -1.168429709818799900e+01 -6.314590542215999136e+00 -3.746119316194199200e+01
-1.703095770327599467e+01 2.953722704965999757e+00 -1.929714287353599644e+01 2.953722704965999757e+00 -5.112360104433999908e+01 8.044957354422999529e+00 -1.929714287353599644e+01 8.044957354422999529e+00 -5.935676699764899666e+01
-4.829279007742199781e+01 -6.337636493099998880e+00 -1.247746190777899855e+01 -6.337636493099998880e+00 -2.113313696062799707e+01 -2.826969975103999833e+00 -1.247746190777899855e+01 -2.826969975103999833e+00 -2.183411796668299942e+01
-1.508357485357799810e+01 -3.520268997530999755e+00 -5.995788221653999273e+00 -3.520268997530999755e+00 -7.174972708551999645e+00 1.396584623570399764e+01 -5.995788221653999273e+00 1.396584623570399764e+01 -1.937396270981599855e+01
-4.485702289979899149e+01 -1.267143199438599765e+01 -7.207621138970998764e+00 -1.267143199438599765e+01 -4.054358909267699573e+01 -9.565990112766998621e+00 -7.207621138970998764e+00 -9.565990112766998621e+00 -7.895158673676998973e+00
-2.807765016033999572e+01 -8.258132400099998938e-02 -7.731916521581998936e+00 -8.258132400099998938e-02 -5.608040098030699738e+01 3.827548342650999302e+00 -7.731916521581998936e+00 3.827548342650999302e+00 -2.947577118063599855e+01
-4.918966166599099665e+01 1.600925388075199862e+01 1.620514446326599511e+01 1.600925388075199862e+01 -4.704062674605798833e+01 6.475912198403999120e+00 1.620514446326599511e+01 6.475912198403999120e+00 -9.427714407462998381e+00
-4.448828768565499558e+01 6.337636493099998880e+00 2.127717415365299658e+01 6.339556989006999821e+00 -3.079323137283799383e+01 1.608031222931099791e+01 2.127717415365299658e+01 1.608031222931099791e+01 -2.286158327692799475e+01
-2.005573875680099505e+01 1.429617153170799781e+01 5.198782420248999614e+00 1.429617153170799781e+01 -3.311511092440100157e+01 2.306515584306999767e+00 5.198782420248999614e+00 2.306515584306999767e+00 -2.158829449058699623e+01
-5.646257966579999277e+01 1.025544814337999888e+01 -1.432689946621999777e+00 1.025544814337999888e+01 -1.167277412274599868e+01 8.882293569874997630e+00 -1.432689946621999777e+00 8.882293569874997630e+00 -4.129066200049999225e+01
-5.655860446114999718e+01 3.428085193994999447e+00 2.312469121618699575e+01 3.428085193994999447e+00 -5.556186708541699204e+01 2.379494428772999726e+01 2.312469121618699575e+01 2.379494428772999726e+01 -6.621101688973199373e+01
-1.536972874372099795e+01 1.136549477762599736e+01 -2.571544019472999487e+00 1.136741527353299830e+01 -5.716740166366898990e+01 -7.401591225577998756e+00 -2.571544019472999487e+00 -7.401591225577998756e+00 -5.333601232920399582e+01
-4.021134330076598928e+01 8.503955876195998798e+00 9.679299371279999065e-01 8.503955876195998798e+00 -1.541197965367499556e+01 -5.171895477550999765e+00 9.698504330349999591e-01 -5.171895477550999765e+00 -3.562519907484999493e+01
-9.212618865878999586e+00 -8.046877850329998694e+00 -1.019399227435599897e+01 -8.046877850329998694e+00 1.862881029789999809e+00 -1.068755972245499741e+01 -1.019399227435599897e+01 -1.068948021836199835e+01 -8.834281172199998977e+00
-2.617635921240999508e+01 -1.260037364582699837e+01 -3.070872955292999418e+00 -1.260037364582699837e+01 -3.786449730241199774e+01 -2.101022522257999459e+00 -3.070872955292999418e+00 -2.101022522257999459e+00 -4.339936650638599502e+01
-7.607084287626999064e+00 7.701188587069999203e-01 -1.248706438731399793e+01 7.681983627999999786e-01 -2.922418621681899609e+01 -3.625896272415999544e+00 -1.248706438731399793e+01 -3.625896272415999544e+00 -4.153264448478199711e+01
-4.330142121512899678e+01 -3.489541063018999800e+00 -2.446711785517999616e+00 -3.489541063018999800e+00 -3.860388822660699759e+01 4.144430167306000001e+00 -2.446711785517999616e+00 4.144430167306000001e+00 -3.581916916145699759e+01
-3.090077914362999678e+01 -8.678721003732997374e+00 4.586144225915999684e+00 -8.680641499639998315e+00 -6.482633934078499749e+01 -5.865194499977999243e+00 4.586144225915999684e+00 -5.865194499977999243e+00 -2.913008191737599617e+01
-1.573846395786499563e+01 -8.793950758152998759e+00 -6.028436652072999280e+00 -8.795871254059997923e+00 -3.395436763576000061e+01 -2.782798569242999509e+00 -6.028436652072999280e+00 -2.782798569242999509e+00 -8.496273892567998587e+00
-4.052630462951399437e+01 -1.045325922180099809e+01 2.142505233849199442e+01 -1.045325922180099809e+01 -4.748618179648199344e+01 -1.276553629382899935e+01 2.142505233849199442e+01 -1.276553629382899935e+01 -6.039383478742900024e+01
-5.046679144414598994e+01 -2.655853789790299402e+01 -4.052246363769999582e-01 -2.655853789790299402e+01 -6.869613859339000328e+01 1.677361125173800005e+01 -4.052246363769999582e-01 1.677361125173800005e+01 -6.753807956146899016e+01
-4.031697057565099840e+01 7.315168909762999050e+00 -2.936822340984399560e+01 7.315168909762999050e+00 -3.678901959449199666e+01 -4.670646045823999337e+00 -2.936822340984399560e+01 -4.670646045823999337e+00 -4.732293964438699163e+01
-5.443069499619399210e+01 1.202806586554099866e+01 1.676592926810999806e+00 1.202614536963399949e+01 -5.898034979987698989e+01 -3.055701037627699890e+01 1.676592926810999806e+00 -3.055701037627699890e+01 -3.803734193404199715e+01
-2.653741244292599788e+01 -9.348974075275998885e+00 -1.474940856575999826e+00 -9.348974075275998885e+00 -2.347998295898199927e+01 -2.144425729756199672e+01 -1.474940856575999826e+00 -2.144425729756199672e+01 -4.546197911050398943e+01
-6.760913791002799655e+01 -8.872691090339998254e+00 2.761096965493899447e+01 -8.872691090339998254e+00 -4.205501937148599723e+01 9.356656058903997319e+00 2.761096965493899447e+01 9.356656058903997319e+00 -2.091804141904399827e+01
-2.444791289610999563e+00 -5.483015814484999417e+00 8.081446776655999642e+00 -5.483015814484999417e+00 -2.750150138823999413e+01 -1.165741015548999782e+00 8.081446776655999642e+00 -1.165741015548999782e+00 -2.786831610647699620e+01
-4.222402301130199476e+01 -6.562334514218998827e+00 -1.218938752172899953e+01 -6.562334514218998827e+00 -5.683323537585099672e+01 -9.053217705597999654e+00 -1.218938752172899953e+01 -9.053217705597999654e+00 -3.232386661071699052e+01
3.301332464132999522e+00 6.053403098863999077e+00 -1.353949614434999837e+00 6.055323594770999129e+00 -4.941820067892399493e+01 -1.349148374667499795e+01 -1.353949614434999837e+00 -1.349148374667499795e+01 -4.862695636523999276e+00
-5.551961617546299266e+01 -8.413692568566998986e+00 5.377388539599999184e+00 -8.413692568566998986e+00 -4.900913505073299348e+01 -6.664120797289998954e+00 5.377388539599999184e+00 -6.664120797289998954e+00 -2.650284351659999516e+01
-2.903981860974699813e+01 -8.918782992107997742e+00 1.271368290434000015e+00 -8.918782992107997742e+00 -4.319579394024399477e+01 -4.768591337080999359e+00 1.271368290434000015e+00 -4.768591337080999359e+00 -5.298648207412999511e+01
-5.044950698098299569e+01 6.942592703804999488e+00 -4.987527870478999148e+00 6.942592703804999488e+00 -3.979075469713299640e+01 4.155953142747999429e+00 -4.987527870478999148e+00 4.155953142747999429e+00 -5.065307954712498884e+01
-2.581146499007999751e+01 -1.017862830709999944e+00 1.406187103105399849e+01 -1.019783326616999775e+00 -3.675637116407299487e+01 2.054930620489999527e+00 1.406187103105399849e+01 2.054930620489999527e+00 -2.906478505653799616e+01
-3.016522921124899526e+01 2.047248636861999760e+00 -2.615715425333999367e+00 2.047248636861999760e+00 -2.362402015200699523e+01 1.052239707445299999e+01 -2.615715425333999367e+00 1.052239707445299999e+01 -6.007887345868098805e+01
-2.105823762025499946e+01 1.400041516202999992e+00 1.542158213320999893e+00 1.400041516202999992e+00 -2.995781565329299667e+01 -2.867300389150999607e+00 1.542158213320999893e+00 -2.867300389150999607e+00 -3.007304540771299628e+01
-3.947387287247799037e+01 7.226826098040998403e+00 4.250057442190999346e+00 7.224905602133999238e+00 -1.285579960145799916e+01 8.357998187263998346e+00 4.250057442190999346e+00 8.357998187263998346e+00 -1.746306928235100031e+01
-1.386405995263299751e+01 4.541972820054999360e+00 1.101980551436599853e+01 4.541972820054999360e+00 -3.135593667358899950e+01 1.208760123865799940e+01 1.101980551436599853e+01 1.208760123865799940e+01 -9.108912086900998517e+00
-2.924915266360999766e+01 5.930491360815999258e+00 -8.392567113589999295e+00 5.930491360815999258e+00 -3.004999945682899920e+01 5.563676642578998965e+00 -8.392567113589999295e+00 5.563676642578998965e+00 -1.388326491170299803e+01
-5.886319954954998934e+00 -2.400619883749999794e-01 5.335137629645999802e+00 -2.400619883749999794e-01 -3.757642291636199872e+01 -8.436738519450999618e+00 5.337058125552998966e+00 -8.438659015357998783e+00 -1.868450467920299829e+01
1.022664070477499898e+01 1.202806586554099866e+01 -1.761286796309699909e+01 1.202998636144799782e+01 -4.703294476242999878e+01 3.758410489998999626e+00 -1.761286796309699909e+01 3.758410489998999626e+00 1.122529857641499973e+01
-2.006534123633599975e+01 8.872691090339999143e-01 -1.087576832134099725e+01 8.891896049409998559e-01 -2.429235272764299935e+01 4.115622728700999211e+00 -1.087576832134099725e+01 4.115622728700999211e+00 -2.714813014135199509e+01
-4.365479246201699937e+01 -1.032650649193899817e+01 -4.180919589539000114e+00 -1.032650649193899817e+01 -5.292502620510599343e+01 -9.892474416956998695e+00 -4.180919589539000114e+00 -9.892474416956998695e+00 -3.566168849708299149e+01
-1.884006484766999634e+01 1.497026559506499765e+01 1.901867096702099857e+01 1.497026559506499765e+01 -2.080281166462399511e+01 -8.897657537130998051e+00 1.901867096702099857e+01 -8.895737041223998887e+00 -2.474751025760199497e+01
-7.058782706178499211e+01 -1.729790663434899756e+01 1.429809202761499876e+01 -1.729790663434899756e+01 -2.840797545634399413e+01 2.026315231475699719e+01 1.429809202761499876e+01 2.026507281066399813e+01 -5.183994601765099475e+01
-6.181884275042299492e+01 2.986371135384999764e+00 6.395251370309999572e+00 2.986371135384999764e+00 -4.135403836543099487e+01 6.353000460355999301e+00 6.395251370309999572e+00 6.353000460355999301e+00 -5.015567110721199384e+01
-4.207230383464899148e+01 -2.175921862630999737e+00 -1.123874204776399921e+01 -2.175921862630999737e+00 -2.957179597598599585e+01 -1.667566596048099825e+01 -1.123874204776399921e+01 -1.667374546457399731e+01 -3.746503415375599388e+01
-3.900911286298399716e+01 4.328797774377999730e+00 -9.811813588862998259e+00 4.328797774377999730e+00 1.620514446326599511e+01 8.258132400099998938e-01 -9.811813588862998259e+00 8.258132400099998938e-01 -2.221821714808299575e+01
-3.109282873432999494e+01 -3.791058920417999634e+00 1.178608338125899913e+01 -3.791058920417999634e+00 -4.002313470187999656e+01 5.861353508163999138e+00 1.178608338125899913e+01 5.861353508163999138e+00 -2.801427379540899665e+01
-2.490307042606899657e+01 -5.123883079875999336e+00 -1.432113797849899761e+01 -5.121962583968999283e+00 -2.953530655375299574e+01 3.902447683023999581e+00 -1.432113797849899761e+01 3.902447683023999581e+00 -2.850592074760099592e+01
-3.713470885775199548e+01 6.001549709374999431e+00 6.454786743426998541e+00 6.001549709374999431e+00 -4.062809091258499450e+01 1.008068301584299853e+01 6.454786743426998541e+00 1.008068301584299853e+01 -3.700603563198299639e+01
-1.985216619065899835e+01 -5.936252848536999416e+00 5.118121592154999178e+00 -5.936252848536999416e+00 -3.910129666651999258e+01 8.863088610804998879e+00 5.118121592154999178e+00 8.863088610804998879e+00 -4.921654860868899561e+01
-2.183027697486899754e+01 -4.440186536983999233e+00 -1.277513877336399872e+01 -4.440186536983999233e+00 -5.334561480873899342e+01 1.843676070719999782e-01 -1.277513877336399872e+01 1.843676070719999782e-01 -3.503368633549399647e+01
-1.848669360078199730e+01 -5.790295159604998965e+00 7.067424937759999581e-01 -5.790295159604998965e+00 -1.257156620722199847e+01 -3.848673797627999882e+00 7.067424937759999581e-01 -3.848673797627999882e+00 -4.002697569369399133e+01
-3.372390812691999429e+01 -9.790688133885998568e+00 1.044173624635899955e+01 -9.790688133885998568e+00 -3.036688128148399457e+01 1.064914980431499814e+01 1.044173624635899955e+01 1.064914980431499814e+01 -1.596124148307699997e+01
-3.094687104539799449e+01 -2.663727823008999795e+00 -1.369697680872399914e+01 -2.663727823008999795e+00 1.970428800581999651e+00 -5.521425732624999583e+00 -1.369697680872399914e+01 -5.521425732624999583e+00 -5.532948708066999011e+00
-5.200318816974599656e+01 -1.402538160882099660e+01 -3.879401732139999837e-01 -1.402538160882099660e+01 -2.178802606491499461e+01 -1.797968268133399761e+01 -3.860196773069999865e-01 -1.797968268133399761e+01 -2.358945122568099961e+01
-1.802001309538099960e+01 1.647593438615299632e+01 -2.738627163381999630e+00 1.647593438615299632e+01 -5.978695808081698715e+01 -1.206647578368099971e+01 -2.738627163381999630e+00 -1.206647578368099971e+01 -4.203005292469499921e+01
-1.018823078663499793e+01 -9.754198711652998455e+00 1.226812785391599725e+01 -9.754198711652998455e+00 -3.413489425101799668e+01 -1.371234077597999867e+00 1.226812785391599725e+01 -1.371234077597999867e+00 -2.734210022795899420e+01
-1.820822169426699588e+01 -1.795663673045000053e+01 1.603422032754300020e+01 -1.795663673045000053e+01 8.292701326425998332e+00 -4.522767860984998833e+00 1.603422032754300020e+01 -4.522767860984998833e+00 -4.503754951505699466e+01
-4.780114312522998787e+00 -2.994053119012999531e+00 -5.254476801551999365e+00 -2.994053119012999531e+00 -2.532173853379499917e+01 1.113887626059999886e-01 -5.254476801551999365e+00 1.113887626059999886e-01 -2.169200126956499730e+01
-5.115624947475899376e+01 -8.546206786149997958e-01 -5.753805737371998852e+00 -8.546206786149997958e-01 -9.214539361785998750e+00 -7.013651052363998772e+00 -5.753805737371998852e+00 -7.013651052363998772e+00 -2.731521328526099524e+01
9.623604989976998425e+00 3.931255121628999927e+00 7.470729078229998876e+00 3.931255121628999927e+00 -2.691575013660499494e+01 9.179970435459999578e+00 7.470729078229998876e+00 9.179970435459999578e+00 -4.001929371006599467e+01
-3.783953085562099261e+01 -1.453623352008299818e+01 -3.410800730831999417e+00 -1.453623352008299818e+01 -2.594397920766299848e+01 -2.088347249271799910e+01 -3.410800730831999417e+00 -2.088347249271799910e+01 -2.530061307881799593e+01
-4.351651675671298847e+01 7.847146276001999432e+00 -7.005969068735999450e+00 7.847146276001999432e+00 -5.869035491791998993e+01 1.000386317956299820e+01 -7.005969068735999450e+00 1.000386317956299820e+01 -2.432692165396899497e+01
-4.032273206337199412e+01 -3.917811650280000002e+00 -1.000386317956299820e+01 -3.917811650280000002e+00 -3.184374263396699334e+01 1.455735897505999743e+00 -1.000386317956299820e+01 1.455735897505999743e+00 -4.167476118189999568e+01
-1.428848954807999938e+01 1.056848897622099948e+01 1.191859759884199832e+01 1.056848897622099948e+01 -3.251399570550999840e+01 1.249666686684899730e+01 1.191859759884199832e+01 1.249666686684899730e+01 -2.235073136566600027e+01
-5.400818589665399827e+01 1.499907303366999844e+00 -1.042829277500999741e+00 1.499907303366999844e+00 -4.021134330076598928e+01 4.225090995399999882e-01 -1.042829277500999741e+00 4.225090995399999882e-01 -4.900145306710498971e+01
-2.795665891819899684e+01 1.255620223996599982e+01 6.967559150595999284e+00 1.255620223996599982e+01 -4.328797774377999730e+01 -8.204358514703997685e+00 6.967559150595999284e+00 -8.204358514703997685e+00 -4.225283044990699466e+01
-4.619176755516399169e+01 -2.934517745895999674e+00 9.888633425142998590e+00 -2.934517745895999674e+00 -2.067989992657599529e+01 1.479165947571399720e+01 9.888633425142998590e+00 1.479165947571399720e+01 -7.018836391312899536e+01
-4.191482317027499249e+01 2.028427776973399688e+01 2.632999888496999841e+00 2.028427776973399688e+01 -3.064919417981299787e+01 6.280021615889999076e-01 2.632999888496999841e+00 6.280021615889999076e-01 -2.733633874023799848e+01
-3.743814721105799492e+01 -1.757829903677099637e+01 1.857119542068999651e+00 -1.757829903677099637e+01 -3.838687218911599075e+01 -2.043407645047999655e+00 1.857119542068999651e+00 -2.043407645047999655e+00 -5.883439211094498944e+01
-4.593634159953299445e+01 1.668910943182999818e+00 -3.030542541245999644e+00 1.668910943182999818e+00 -3.016907020306299714e+01 -3.629737264229999649e+00 -3.030542541245999644e+00 -3.629737264229999649e+00 -3.272140926346600054e+01
-5.541590939648499159e+01 -1.603037933572899831e+01 -4.034961900606999663e+00 -1.603037933572899831e+01 -6.510289075139299086e+01 -6.510481124729999181e+00 -4.034961900606999663e+00 -6.510481124729999181e+00 -2.475519224122999873e+01
-1.486463832017999698e+00 2.955643200872999810e+00 5.653939950207999665e+00 2.955643200872999810e+00 3.030542541245999644e+00 -8.244688928750999679e+00 5.653939950207999665e+00 -8.244688928750999679e+00 -4.534482886017699599e+01
-4.569627961115799053e+01 1.434994541710399929e+01 -2.009030768312699777e+01 1.434994541710399929e+01 -3.928758476949899148e+01 -1.250434885047699929e+01 -2.009030768312699777e+01 -1.250434885047699929e+01 -5.883439211094498944e+01
-4.249289243828199147e+01 -4.839649685639999532e+00 4.486278438751999609e+00 -4.839649685639999532e+00 -1.584985272047099869e+01 5.348581100994999282e+00 4.486278438751999609e+00 5.348581100994999282e+00 -1.852318302301500097e+01
-4.517006373263999564e+01 6.001549709374999431e+00 1.498755005822799902e+01 6.001549709374999431e+00 -3.737285035021999846e+01 -1.334936704955699760e+01 1.498755005822799902e+01 -1.334936704955699760e+01 -5.912438699290199651e+01
-2.579226003100999520e+01 1.070676468152499972e+01 -6.773589063988999293e+00 1.070676468152499972e+01 -3.228545669257699302e+01 9.521818706905998297e+00 -6.773589063988999293e+00 9.521818706905998297e+00 -3.394092416441100113e+01
-1.242752901419699896e+01 -9.894394912863999636e+00 4.686010013079999204e-01 -9.892474416956998695e+00 -3.515467757763499179e+01 9.358576554810998260e+00 4.686010013079999204e-01 9.358576554810998260e+00 -3.018827516213299589e+01
-5.860585309801199827e+01 1.574806643739999901e-01 2.842333942359999810e+00 1.574806643739999901e-01 -2.192438127431199746e+01 1.728446316299999883e-02 2.842333942359999810e+00 1.728446316299999883e-02 -5.797208944870199332e+01
-2.987907532110599718e+01 2.025739082703599792e+01 2.164398887188999865e+00 2.025739082703599792e+01 -4.179767291994799194e+01 -1.347611977941899752e+01 2.164398887188999865e+00 -1.347611977941899752e+01 -4.821404974523499476e+01
-5.085281112145299431e+01 3.583645362461999717e+00 -4.997130350013999411e+00 3.583645362461999717e+00 -3.023820805571499193e+01 1.650474182475799623e+01 -4.997130350013999411e+00 1.650474182475799623e+01 -3.341662878179999296e+01
-2.110048853020899884e+01 1.724989423667399890e+01 5.899763426303999303e+00 1.724989423667399890e+01 -5.794904349781798913e+01 -1.092762171082999778e+01 5.899763426303999303e+00 -1.092762171082999778e+01 -2.360865618475099836e+01
-1.917807212730199851e+01 -8.642231581499999760e-02 -2.746309147009999840e+00 -8.642231581499999760e-02 -1.984256371112399719e+01 1.882085988859999670e+00 -2.746309147009999840e+00 1.882085988859999670e+00 -1.400425615384399869e+01
-5.244682272426299363e+01 1.108126138338999978e+00 3.842912309906999724e+00 1.108126138338999978e+00 -5.754381886144098956e+01 -7.585958832649999373e-01 3.842912309906999724e+00 -7.585958832649999373e-01 -2.988291631291999551e+01
-3.373159011054799805e+01 -7.785690406977999523e+00 -1.177840139763099891e+01 -7.785690406977999523e+00 -2.184564094212499796e+01 6.714053690871999436e+00 -1.177840139763099891e+01 6.714053690871999436e+00 -5.371242952697599549e+01
2.387176412400999759e+00 -1.179184486897999706e+00 2.177842358537999790e+00 -1.179184486897999706e+00 4.528529348705998991e+00 8.561570753405998602e+00 2.177842358537999790e+00 8.561570753405998602e+00 -2.409070065740799649e+01
-3.678517860267799477e+01 6.066846570212999445e+00 -3.937016609349999197e-01 6.066846570212999445e+00 -7.152887005621499839e+01 2.035725661419999777e-01 -3.937016609349999197e-01 2.035725661419999777e-01 -1.871139162190099725e+01
-2.208954392231399666e+01 4.397935627029998962e+00 1.109086386292499782e+01 4.397935627029998962e+00 -4.199548399836899648e+01 -8.296542318239998881e-01 1.109086386292499782e+01 -8.296542318239998881e-01 -4.748810229238899439e+01
-2.314965766297799732e+01 -1.850205756803799773e+01 4.720578939405999819e+00 -1.850205756803799773e+01 -2.346845998353999718e+01 7.272917999808998779e+00 4.720578939405999819e+00 7.272917999808998779e+00 -4.929336844496899062e+01
1.801425160765999900e+00 1.396200524388999886e+00 -2.223934260305999722e+00 1.396200524388999886e+00 -2.770123296256799605e+01 -4.415220090192999436e+00 -2.223934260305999722e+00 -4.415220090192999436e+00 -2.003077231000999880e+00
-2.022282190070999519e+01 -1.585945520000599807e+01 8.709448938244998217e+00 -1.585945520000599807e+01 -1.570389503153899824e+01 2.406381371470999841e+00 8.709448938244998217e+00 2.406381371470999841e+00 -1.747075126597899697e+01
-8.292701326425998332e+00 -8.417533560380999091e+00 1.196084850879599770e+01 -8.417533560380999091e+00 3.706557100509999536e-01 1.958521725958599902e+01 1.196084850879599770e+01 1.958521725958599902e+01 -4.196283556794999647e+00
-3.561559659531499022e+01 -1.144615560571999779e+01 -4.595746705450999947e+00 -1.144615560571999779e+01 -4.681208773312499716e+01 4.718658443498999766e+00 -4.595746705450999947e+00 4.718658443498999766e+00 -1.879397294590199508e+01
-2.900909067523499729e+01 8.795871254059999256e-01 -6.827362949384998991e+00 8.795871254059999256e-01 -3.652015016751199994e+01 -1.932018882441999708e+00 -6.827362949384998991e+00 -1.932018882441999708e+00 -1.157098783967499855e+01
-3.067800161841799422e+01 7.816418341489999033e-01 -1.121953708869399868e+01 7.816418341489999033e-01 -1.676977025992399817e+01 7.543707922695999102e+00 -1.121953708869399868e+01 7.543707922695999102e+00 -2.968510523449899807e+01
-9.187652419087999789e+00 1.100444154710999989e+00 -1.224316140712499745e+01 1.100444154710999989e+00 -4.041491586690799664e+01 -7.733837017488998988e+00 -1.224316140712499745e+01 -7.733837017488998988e+00 -2.438069553936499645e+01
-3.051667996223000046e+01 2.977536854212799611e+01 1.104477196115699833e+01 2.977536854212799611e+01 -1.929138138581499717e+01 -2.325720543376999849e+00 1.104477196115699833e+01 -2.325720543376999849e+00 -5.605927552532999236e+00
-2.075864025876299479e+01 8.707528442337999053e+00 8.719051417779997593e+00 8.707528442337999053e+00 -6.964486357144798490e+01 1.975230040349499916e+01 8.719051417779997593e+00 1.975230040349499916e+01 -3.739013481338299272e+01
-2.660655029557799622e+01 -1.176687842218899860e+01 3.670067678276999423e+00 -1.176687842218899860e+01 -5.092386947001199360e+01 -4.002313470187999656e+00 3.670067678276999423e+00 -4.002313470187999656e+00 -3.777615449068999709e+00
-5.950656567839499189e+01 1.509701832492699758e+01 8.083367272562998807e+00 1.509893882083399674e+01 -3.095455302902599826e+01 -3.739205530928999544e+00 8.083367272562998807e+00 -3.739205530928999544e+00 -4.251017690144499284e+01
-6.028436652072999280e+00 3.798740904045999844e+00 3.489541063018999800e+00 3.798740904045999844e+00 -2.719614253902699730e+01 -1.391207235030799794e+01 3.489541063018999800e+00 -1.391207235030799794e+01 -2.684085079623199732e+01
-5.587298742235099525e+01 1.457656393412999840e+01 1.840795326859499781e+01 1.457656393412999840e+01 -7.311135868358299206e+01 1.359903151746699734e+01 1.840795326859499781e+01 1.359903151746699734e+01 -3.836190574232499273e+01
-1.802385408719499793e+01 -2.341084510632999827e+00 7.628209742603998755e+00 -2.341084510632999827e+00 -8.711369434151999158e+00 1.340314093495299907e+01 7.628209742603998755e+00 1.340314093495299907e+01 -3.631273660955599780e+01
-5.843108797047499081e+01 -1.579991982688899732e+01 -1.068755972245499741e+01 -1.579991982688899732e+01 -3.792979416324999686e+00 -1.354141664025699754e+01 -1.068755972245499741e+01 -1.354141664025699754e+01 -6.404853849844998948e+00
-2.773388139298699784e+01 1.333016209048699885e+01 -1.175343495083999734e+01 1.333016209048699885e+01 -2.367395304558899483e+01 -7.140403782225998697e+00 -1.175343495083999734e+01 -7.140403782225998697e+00 -3.301140414542299339e+01
-3.409072284515699636e+01 -6.207042771423999739e+00 1.897257906525299731e+01 -6.207042771423999739e+00 -3.525838435661299286e+01 6.295385583145999497e+00 1.897257906525299731e+01 6.295385583145999497e+00 -4.054358909267699573e+01
-1.745154630690899822e+01 6.942592703804999488e+00 -1.942581609930499909e+01 6.942592703804999488e+00 -2.826777925513299650e+01 -1.246401843642999774e+00 -1.942581609930499909e+01 -1.246401843642999774e+00 -4.718466393908299494e+01
-6.093541463320299556e+01 6.393330874402998631e+00 -1.661805108327099489e+01 6.393330874402998631e+00 -4.668341450735599096e+01 6.207042771423999739e+00 -1.661805108327099489e+01 6.207042771423999739e+00 -5.387951267088499208e+01
1.712506200271899814e+01 -6.172473845097998790e+00 -6.606505920079999150e-01 -6.172473845097998790e+00 -4.795478279778999564e+01 -8.834281172199998977e+00 -6.606505920079999150e-01 -8.834281172199998977e+00 -7.355499323809999268e+00
-2.787023660238399714e+01 7.874033218699999281e+00 -2.054930620489999749e-01 7.874033218699999281e+00 -5.347044704269399062e+01 -1.782220201695999817e+00 -2.054930620489999749e-01 -1.780299705788999765e+00 -3.132136774726299677e+01